/*--------------------------------*- C++ -*----------------------------------*\
| =========                 |                                                 |
| \\      /  F ield         | OpenFOAM: The Open Source CFD Toolbox           |
|  \\    /   O peration     | Version:  2406                                  |
|   \\  /    A nd           | Website:  www.openfoam.com                      |
|    \\/     M anipulation  |                                                 |
\*---------------------------------------------------------------------------*/
FoamFile
{
    version     2.0;
    format      ascii;
    arch        "LSB;label=32;scalar=64";
    class       volScalarField;
    location    "0.0264";
    object      p;
}
// * * * * * * * * * * * * * * * * * * * * * * * * * * * * * * * * * * * * * //

dimensions      [1 -1 -2 0 0 0 0];

internalField   nonuniform List<scalar> 
207657
(
950604
952057
952896
953450
953853
954161
954400
954585
954727
954833
954908
954958
954991
955010
955022
955031
955040
955051
955066
955085
955106
955129
955151
955172
955192
955207
955219
955225
955227
955223
955213
955197
955176
955148
955112
955068
955016
954956
954889
954813
950609
952063
952902
953456
953860
954169
954409
954594
954735
954839
954910
954957
954984
954999
955007
955013
955020
955032
955048
955069
955093
955119
955144
955168
955189
955206
955218
955225
955227
955223
955214
955198
955177
955148
955113
955069
955017
954956
954888
954812
950621
952074
952913
953468
953874
954185
954427
954613
954752
954851
954916
954953
954971
954975
954975
954975
954980
954992
955011
955037
955067
955099
955130
955159
955184
955204
955217
955226
955228
955224
955215
955199
955178
955150
955114
955070
955018
954956
954887
954809
950649
952098
952934
953487
953895
954209
954454
954642
954779
954871
954925
954947
954948
954937
954924
954915
954916
954929
954954
954988
955028
955070
955111
955147
955177
955200
955216
955226
955229
955225
955216
955201
955179
955151
955116
955072
955019
954957
954886
954806
950704
952144
952967
953514
953922
954241
954491
954682
954816
954900
954936
954936
954914
954882
954850
954830
954827
954843
954876
954923
954978
955033
955086
955132
955168
955196
955215
955225
955229
955226
955216
955201
955180
955152
955118
955074
955021
954958
954886
954802
950801
952216
953013
953546
953953
954277
954535
954731
954858
954926
954943
954919
954869
954808
954755
954720
954715
954736
954783
954847
954919
954992
955059
955115
955159
955191
955213
955225
955229
955225
955216
955201
955180
955153
955119
955076
955024
954961
954887
954799
950943
952312
953067
953580
953982
954311
954576
954770
954893
954949
954946
954896
954818
954734
954664
954617
954603
954623
954684
954768
954860
954951
955033
955100
955151
955188
955211
955224
955227
955224
955214
955199
955179
955154
955121
955079
955028
954964
954889
954797
951033
952375
953103
953602
954002
954336
954605
954802
954924
954969
954949
954875
954772
954669
954582
954523
954504
954529
954596
954697
954808
954916
955011
955087
955145
955185
955211
955224
955227
955222
955212
955197
955178
955153
955121
955081
955030
954967
954890
954795
951075
952406
953121
953613
954013
954354
954624
954824
954944
954983
954950
954861
954739
954620
954522
954454
954431
954457
954525
954643
954769
954890
954994
955079
955141
955184
955211
955224
955226
955221
955211
955196
955177
955153
955121
955081
955031
954968
954891
954793
951091
952417
953128
953617
954018
954365
954633
954834
954953
954990
954952
954853
954721
954595
954491
954419
954393
954418
954487
954613
954748
954876
954986
955074
955139
955184
955211
955224
955226
955221
955210
955196
955177
955153
955121
955082
955031
954968
954890
954791
951091
952418
953128
953617
954018
954366
954633
954834
954953
954990
954952
954854
954722
954595
954491
954419
954393
954418
954487
954614
954748
954876
954986
955074
955139
955184
955211
955224
955226
955221
955210
955196
955177
955153
955121
955082
955031
954968
954890
954791
951076
952406
953122
953613
954013
954354
954624
954824
954945
954984
954952
954862
954741
954622
954524
954456
954431
954457
954526
954643
954769
954890
954994
955079
955141
955184
955210
955224
955226
955221
955211
955196
955177
955153
955121
955081
955031
954968
954891
954793
951034
952376
953104
953603
954002
954337
954606
954803
954925
954971
954951
954878
954775
954672
954584
954525
954505
954530
954597
954697
954808
954916
955011
955087
955145
955185
955211
955224
955227
955222
955212
955197
955178
955153
955121
955081
955030
954967
954890
954795
950944
952313
953068
953581
953983
954312
954577
954771
954895
954952
954949
954899
954821
954738
954667
954619
954604
954624
954685
954768
954861
954952
955033
955100
955151
955188
955211
955224
955227
955223
955214
955199
955179
955153
955121
955079
955028
954964
954889
954797
950802
952217
953014
953548
953954
954278
954537
954733
954860
954929
954946
954922
954872
954811
954757
954722
954716
954738
954784
954848
954920
954992
955059
955115
955159
955191
955213
955225
955228
955225
955216
955201
955180
955153
955119
955076
955024
954961
954887
954799
950706
952146
952968
953515
953923
954242
954493
954684
954819
954903
954939
954939
954917
954884
954853
954832
954828
954844
954877
954924
954978
955034
955086
955132
955168
955196
955215
955225
955229
955226
955216
955201
955180
955152
955117
955074
955021
954958
954886
954802
950651
952100
952936
953489
953896
954211
954456
954644
954781
954874
954927
954949
954951
954940
954926
954917
954917
954930
954955
954989
955028
955070
955111
955147
955177
955200
955216
955226
955228
955225
955216
955201
955179
955151
955116
955072
955019
954957
954886
954806
950623
952076
952915
953469
953876
954187
954428
954615
954754
954854
954919
954956
954973
954978
954977
954977
954981
954993
955012
955037
955067
955099
955130
955159
955184
955204
955217
955226
955228
955224
955215
955199
955178
955150
955114
955070
955018
954956
954887
954809
950611
952065
952904
953457
953862
954171
954411
954596
954738
954841
954913
954960
954987
955001
955009
955014
955021
955033
955049
955069
955093
955119
955144
955168
955189
955206
955218
955225
955227
955223
955214
955198
955177
955148
955113
955069
955017
954956
954888
954812
950606
952060
952898
953452
953855
954163
954402
954587
954729
954835
954911
954962
954994
955012
955024
955032
955041
955052
955067
955085
955106
955129
955151
955172
955192
955207
955219
955225
955226
955222
955213
955197
955176
955147
955112
955068
955016
954956
954889
954813
851233
851906
852513
852985
853352
853642
853870
854049
854187
854291
854365
854416
854449
854470
854483
854492
854502
854513
854528
854546
854566
854587
854609
854629
854647
854661
854672
854677
854678
854674
854664
854649
854627
854599
854564
854521
854469
854408
854340
854264
851238
851911
852518
852990
853359
853649
853878
854058
854195
854297
854368
854415
854443
854459
854468
854475
854483
854494
854510
854530
854553
854578
854602
854624
854644
854660
854671
854678
854679
854674
854665
854649
854628
854600
854565
854521
854469
854408
854340
854263
851250
851919
852528
853001
853372
853664
853896
854076
854212
854310
854374
854412
854430
854436
854437
854438
854443
854455
854474
854499
854528
854558
854588
854615
854639
854658
854671
854678
854680
854676
854666
854651
854629
854601
854566
854523
854470
854409
854339
854260
851278
851943
852547
853019
853391
853688
853923
854105
854239
854330
854383
854406
854408
854398
854386
854378
854379
854392
854416
854450
854489
854530
854569
854605
854633
854655
854670
854678
854680
854677
854667
854652
854631
854603
854568
854524
854472
854410
854338
854257
851334
851986
852575
853042
853416
853719
853961
854147
854278
854358
854396
854396
854374
854342
854311
854291
854288
854304
854338
854385
854439
854494
854545
854590
854624
854651
854668
854678
854681
854677
854667
854652
854631
854604
854570
854527
854474
854412
854339
854253
851447
852060
852618
853071
853445
853755
854007
854201
854325
854391
854405
854378
854327
854267
854209
854175
854171
854192
854240
854306
854380
854453
854519
854573
854616
854647
854667
854677
854680
854676
854666
854651
854631
854605
854571
854529
854478
854415
854341
854252
851659
852175
852670
853099
853471
853790
854055
854243
854363
854416
854408
854352
854268
854180
854108
854060
854045
854066
854135
854223
854320
854413
854494
854560
854609
854644
854665
854676
854678
854673
854663
854648
854629
854605
854573
854532
854482
854421
854346
854252
851765
852239
852701
853114
853486
853812
854082
854280
854399
854438
854411
854329
854216
854109
854020
853958
853937
853965
854042
854150
854267
854379
854474
854549
854604
854642
854665
854676
854677
854671
854660
854646
854628
854604
854573
854534
854485
854424
854349
854252
851806
852265
852712
853118
853491
853825
854099
854303
854421
854454
854413
854313
854179
854057
853957
853884
853858
853889
853974
854096
854229
854354
854459
854542
854602
854641
854665
854676
854677
854670
854659
854644
854627
854604
854573
854535
854486
854426
854350
854250
851819
852273
852715
853120
853493
853834
854107
854312
854430
854461
854415
854305
854159
854028
853924
853847
853818
853849
853930
854066
854209
854340
854452
854538
854600
854641
854665
854676
854676
854670
854658
854644
854626
854603
854573
854535
854487
854426
854350
854249
851819
852273
852715
853120
853493
853835
854107
854312
854431
854461
854415
854306
854160
854029
853924
853847
853818
853849
853930
854066
854209
854340
854452
854538
854600
854641
854665
854676
854676
854670
854658
854644
854626
854603
854573
854535
854487
854426
854350
854249
851807
852266
852712
853119
853491
853825
854100
854303
854422
854455
854414
854315
854181
854058
853958
853885
853859
853890
853974
854096
854230
854354
854459
854542
854602
854641
854665
854676
854676
854670
854659
854644
854626
854604
854573
854535
854486
854425
854350
854250
851766
852240
852701
853115
853486
853813
854083
854281
854400
854440
854413
854332
854221
854112
854023
853960
853938
853966
854043
854150
854267
854379
854474
854549
854604
854642
854665
854676
854677
854671
854660
854646
854628
854604
854573
854534
854485
854424
854349
854252
851660
852176
852671
853100
853472
853791
854056
854245
854365
854418
854411
854355
854273
854184
854111
854063
854046
854067
854135
854224
854320
854413
854495
854560
854609
854644
854665
854676
854678
854673
854663
854648
854629
854605
854573
854532
854482
854421
854346
854252
851448
852061
852619
853072
853446
853757
854009
854203
854329
854394
854408
854381
854330
854270
854212
854177
854173
854193
854241
854307
854380
854453
854519
854574
854616
854647
854667
854677
854680
854676
854666
854651
854631
854605
854571
854529
854478
854415
854341
854251
851335
851987
852577
853044
853418
853721
853963
854149
854280
854360
854399
854398
854377
854345
854314
854293
854289
854305
854339
854385
854439
854494
854545
854590
854624
854651
854668
854678
854681
854677
854667
854652
854631
854604
854570
854527
854474
854411
854339
854253
851279
851945
852548
853020
853393
853690
853925
854107
854241
854332
854385
854408
854410
854401
854388
854379
854380
854393
854417
854451
854490
854530
854570
854605
854633
854655
854670
854678
854680
854677
854667
854652
854631
854603
854568
854524
854472
854409
854338
854257
851252
851921
852530
853003
853373
853666
853898
854078
854214
854312
854376
854415
854433
854438
854439
854439
854444
854456
854475
854499
854528
854559
854588
854615
854639
854658
854671
854678
854680
854676
854666
854651
854629
854601
854566
854523
854470
854409
854339
854260
851240
851913
852520
852992
853361
853651
853880
854060
854198
854299
854371
854419
854446
854461
854470
854476
854484
854495
854511
854531
854554
854578
854602
854624
854644
854660
854671
854678
854679
854674
854665
854649
854628
854600
854565
854521
854469
854408
854340
854263
851235
851908
852515
852987
853354
853644
853872
854051
854189
854293
854368
854421
854452
854472
854485
854494
854503
854514
854529
854546
854566
854588
854609
854629
854647
854661
854672
854677
854678
854674
854664
854649
854627
854599
854564
854520
854469
854408
854340
854264
751441
751791
752204
752577
752891
753150
753360
753528
753659
753759
753832
753884
753919
753942
753957
753968
753979
753991
754005
754021
754039
754058
754076
754093
754109
754122
754130
754134
754134
754129
754119
754103
754082
754055
754020
753978
753926
753865
753797
753719
751444
751794
752208
752582
752897
753157
753368
753536
753667
753765
753836
753884
753914
753932
753943
753952
753961
753973
753988
754006
754027
754049
754070
754089
754107
754121
754130
754135
754134
754129
754119
754104
754083
754055
754021
753978
753927
753866
753796
753717
751454
751802
752216
752591
752909
753171
753384
753554
753683
753778
753842
753881
753902
753911
753914
753916
753923
753934
753952
753976
754002
754030
754057
754082
754103
754119
754130
754135
754136
754131
754121
754106
754084
754057
754023
753980
753928
753866
753796
753715
751476
751820
752230
752605
752926
753193
753411
753583
753711
753799
753852
753876
753881
753874
753864
753857
753859
753872
753896
753928
753965
754003
754039
754072
754097
754116
754129
754136
754137
754132
754122
754107
754086
754059
754025
753982
753930
753868
753796
753712
751527
751853
752249
752621
752947
753223
753449
753625
753752
753829
753865
753867
753847
753817
753788
753768
753765
753780
753814
753861
753914
753968
754017
754058
754090
754113
754128
754136
754137
754132
754122
754107
754086
754060
754026
753984
753933
753871
753798
753710
751663
751923
752280
752640
752970
753259
753499
753679
753810
753871
753881
753849
753796
753736
753685
753650
753637
753658
753708
753778
753854
753927
753992
754043
754082
754109
754126
754134
754135
754130
754119
754105
754085
754060
754027
753987
753937
753877
753803
753711
752092
752071
752322
752655
752989
753296
753562
753740
753854
753900
753884
753816
753719
753620
753550
753501
753483
753516
753589
753687
753791
753888
753969
754031
754077
754107
754125
754133
754132
754125
754113
754099
754081
754060
754030
753992
753945
753887
753815
753721
752227
752127
752335
752656
752994
753314
753588
753789
753902
753926
753886
753788
753662
753541
753452
753380
753354
753389
753483
753608
753739
753859
753953
754024
754074
754107
754125
754132
754130
754121
754109
754095
754079
754059
754030
753993
753948
753892
753821
753723
752259
752138
752329
752643
752986
753316
753603
753815
753930
753946
753889
753770
753615
753483
753384
753296
753262
753302
753411
753554
753705
753837
753943
754021
754074
754108
754126
754132
754129
754119
754107
754093
754077
754057
754029
753993
753949
753893
753823
753723
752263
752137
752323
752640
752979
753309
753606
753822
753938
753953
753892
753762
753590
753451
753347
753255
753217
753259
753378
753527
753685
753824
753938
754020
754075
754109
754127
754132
754129
754119
754105
754092
754076
754056
754029
753993
753949
753894
753823
753722
752264
752137
752324
752640
752979
753309
753606
753822
753938
753953
753892
753762
753591
753452
753348
753256
753218
753259
753379
753527
753685
753824
753938
754020
754075
754109
754127
754132
754129
754119
754105
754092
754076
754056
754029
753993
753949
753894
753823
753722
752260
752139
752330
752644
752987
753317
753604
753815
753930
753947
753890
753771
753618
753485
753386
753297
753262
753302
753411
753555
753705
753837
753943
754021
754074
754108
754126
754132
754129
754119
754106
754093
754077
754057
754029
753993
753949
753893
753823
753723
752228
752128
752335
752656
752994
753314
753588
753790
753903
753928
753888
753791
753667
753545
753455
753382
753355
753390
753484
753609
753740
753859
753953
754024
754074
754107
754125
754132
754130
754121
754109
754095
754079
754059
754030
753993
753948
753892
753821
753723
752094
752073
752323
752656
752990
753297
753563
753742
753856
753902
753886
753819
753723
753626
753553
753503
753484
753516
753590
753688
753792
753889
753969
754031
754077
754107
754125
754132
754132
754125
754113
754099
754081
754059
754030
753992
753945
753887
753815
753721
751665
751924
752281
752641
752971
753260
753501
753682
753816
753874
753884
753852
753800
753740
753689
753652
753638
753659
753709
753778
753854
753928
753992
754043
754082
754109
754126
754134
754135
754130
754119
754104
754085
754060
754027
753987
753937
753876
753803
753711
751528
751854
752250
752623
752948
753224
753451
753627
753754
753831
753868
753870
753850
753820
753791
753771
753766
753782
753815
753862
753915
753968
754017
754058
754090
754113
754128
754135
754137
754132
754122
754107
754086
754060
754026
753984
753933
753871
753798
753710
751478
751821
752232
752606
752927
753195
753413
753585
753713
753801
753854
753879
753883
753876
753866
753859
753861
753873
753896
753928
753965
754003
754039
754072
754097
754116
754129
754136
754136
754132
754122
754107
754086
754059
754025
753982
753930
753868
753796
753712
751456
751803
752218
752593
752910
753173
753386
753556
753685
753780
753844
753884
753904
753913
753916
753918
753924
753936
753953
753976
754003
754030
754057
754083
754103
754119
754130
754135
754135
754131
754121
754105
754084
754057
754023
753980
753928
753866
753796
753715
751446
751796
752210
752584
752899
753159
753370
753538
753669
753767
753838
753887
753917
753934
753945
753954
753962
753974
753989
754007
754027
754049
754070
754089
754107
754121
754130
754135
754134
754129
754119
754104
754083
754055
754021
753978
753927
753866
753796
753717
751443
751793
752206
752579
752893
753152
753362
753529
753661
753761
753835
753888
753922
753944
753959
753970
753980
753992
754005
754021
754039
754058
754076
754093
754109
754122
754130
754134
754134
754129
754118
754103
754082
754054
754020
753977
753926
753865
753797
753719
651421
651627
651911
652198
652457
652679
652865
653018
653140
653235
653308
653361
653400
653426
653445
653459
653471
653483
653496
653510
653524
653539
653553
653566
653579
653588
653593
653595
653593
653587
653576
653561
653540
653514
653480
653439
653389
653328
653258
653177
651424
651629
651914
652202
652462
652685
652872
653025
653147
653241
653311
653362
653395
653418
653433
653445
653456
653467
653481
653497
653514
653531
653548
653563
653577
653587
653593
653596
653594
653588
653577
653562
653541
653515
653482
653440
653390
653329
653258
653175
651430
651634
651920
652209
652471
652698
652887
653042
653163
653254
653318
653360
653385
653399
653407
653413
653421
653432
653448
653468
653491
653514
653536
653558
653574
653586
653594
653597
653595
653589
653579
653564
653543
653517
653484
653442
653392
653330
653258
653173
651442
651643
651927
652217
652484
652717
652913
653070
653190
653275
653329
653357
653366
653365
653359
653356
653359
653372
653394
653422
653455
653489
653520
653548
653569
653584
653593
653597
653596
653591
653580
653565
653545
653519
653486
653445
653395
653333
653259
653171
651472
651655
651927
652224
652500
652744
652951
653114
653233
653308
653343
653349
653334
653308
653282
653265
653261
653277
653310
653355
653405
653455
653501
653536
653563
653581
653593
653597
653597
653591
653580
653565
653545
653520
653487
653447
653398
653337
653264
653172
651598
651689
651933
652225
652515
652780
653006
653177
653293
653360
653371
653330
653282
653220
653167
653130
653116
653138
653192
653265
653343
653416
653477
653524
653557
653579
653591
653596
653594
653587
653576
653561
653542
653518
653487
653449
653402
653344
653273
653178
652650
651826
651937
652215
652523
652822
653086
653255
653359
653395
653371
653284
653160
653063
652988
652939
652914
652943
653045
653161
653277
653380
653458
653514
653553
653577
653589
653592
653588
653576
653562
653549
653534
653518
653493
653459
653416
653363
653301
653213
652795
651836
651911
652191
652511
652834
653118
653332
653438
653424
653369
653247
653094
652968
652886
652790
652750
652794
652920
653075
653227
653353
653447
653512
653554
653578
653590
653591
653584
653571
653556
653543
653530
653515
653491
653458
653418
653370
653311
653221
652799
651813
651876
652153
652482
652823
653136
653366
653473
653451
653368
653225
653049
652908
652821
652687
652634
652687
652838
653022
653202
653343
653446
653516
653559
653582
653592
653591
653583
653568
653552
653539
653528
653512
653489
653457
653419
653372
653314
653222
652786
651794
651853
652130
652459
652804
653132
653369
653476
653453
653368
653217
653028
652876
652781
652645
652582
652635
652802
652998
653184
653338
653448
653519
653562
653585
653594
653592
653582
653566
653550
653538
653527
653512
653488
653456
653419
653373
653315
653222
652787
651794
651853
652131
652459
652804
653132
653369
653476
653453
653369
653218
653029
652878
652781
652646
652582
652635
652802
652998
653185
653338
653448
653519
653562
653585
653594
653592
653582
653566
653550
653538
653527
653512
653488
653456
653419
653373
653315
653222
652799
651813
651876
652154
652483
652823
653136
653366
653473
653451
653370
653227
653051
652912
652823
652689
652634
652687
652838
653022
653202
653343
653446
653516
653558
653582
653592
653591
653583
653568
653552
653539
653527
653512
653489
653457
653419
653372
653314
653222
652796
651837
651912
652192
652511
652834
653119
653333
653439
653425
653371
653249
653096
652972
652890
652792
652751
652796
652921
653075
653227
653353
653447
653512
653554
653578
653590
653591
653584
653571
653556
653543
653530
653515
653491
653458
653418
653370
653311
653221
652652
651827
651938
652216
652524
652822
653087
653257
653359
653397
653373
653287
653164
653066
652991
652941
652912
652943
653046
653162
653277
653380
653458
653514
653553
653577
653589
653592
653587
653576
653562
653549
653534
653518
653493
653459
653416
653363
653301
653213
651599
651690
651934
652227
652516
652781
653007
653177
653291
653362
653374
653334
653286
653224
653170
653133
653118
653139
653193
653266
653343
653416
653478
653524
653557
653579
653591
653596
653594
653587
653576
653561
653542
653518
653487
653449
653402
653344
653273
653178
651473
651657
651929
652225
652501
652746
652952
653116
653235
653310
653345
653352
653338
653311
653285
653267
653263
653278
653311
653356
653406
653455
653501
653536
653563
653581
653593
653597
653596
653591
653580
653565
653545
653520
653487
653447
653398
653337
653263
653172
651443
651644
651929
652219
652486
652719
652914
653072
653192
653277
653331
653360
653369
653367
653361
653358
653361
653373
653394
653423
653456
653489
653520
653548
653569
653584
653593
653597
653596
653591
653580
653565
653545
653519
653486
653445
653394
653333
653259
653171
651431
651636
651922
652210
652473
652699
652889
653044
653165
653256
653320
653363
653387
653401
653409
653414
653422
653433
653449
653469
653491
653514
653537
653558
653574
653586
653593
653597
653595
653589
653579
653564
653543
653517
653484
653442
653392
653330
653258
653173
651426
651631
651916
652203
652463
652687
652874
653027
653149
653243
653313
653363
653397
653420
653435
653446
653457
653468
653481
653497
653514
653531
653548
653563
653577
653587
653593
653596
653594
653588
653577
653562
653541
653515
653482
653440
653390
653329
653258
653175
651423
651629
651913
652200
652459
652681
652867
653019
653142
653237
653310
653363
653401
653428
653447
653461
653473
653484
653497
653510
653525
653539
653553
653566
653579
653588
653593
653595
653593
653587
653576
653561
653540
653514
653480
653439
653389
653328
653258
653177
551267
551404
551609
551828
552036
552221
552381
552516
552627
552718
552790
552846
552890
552922
552947
552965
552979
552991
553002
553013
553022
553032
553040
553048
553055
553059
553061
553060
553056
553048
553037
553021
553002
552977
552945
552906
552857
552797
552726
552640
551268
551406
551611
551831
552040
552226
552387
552522
552634
552723
552794
552847
552887
552916
552938
552954
552967
552979
552990
553002
553013
553025
553035
553046
553054
553059
553061
553061
553057
553049
553038
553023
553003
552978
552947
552907
552859
552798
552726
552639
551270
551408
551615
551835
552047
552236
552399
552536
552647
552734
552800
552847
552879
552901
552916
552928
552939
552950
552963
552978
552994
553010
553025
553041
553052
553059
553062
553062
553058
553051
553040
553025
553006
552981
552950
552910
552861
552801
552727
552637
551269
551405
551609
551838
552056
552252
552421
552561
552672
552754
552810
552846
552864
552872
552874
552877
552883
552896
552914
552937
552962
552988
553011
553033
553048
553058
553063
553063
553060
553053
553042
553027
553008
552983
552952
552914
552865
552805
552730
552636
551244
551385
551597
551836
552065
552275
552458
552608
552719
552790
552827
552841
552838
552820
552800
552786
552785
552801
552831
552870
552914
552956
552998
553024
553043
553056
553062
553063
553060
553053
553042
553027
553008
552984
552953
552916
552869
552810
552737
552641
551110
551308
551556
551814
552069
552309
552518
552688
552800
552850
552850
552816
552807
552734
552675
552632
552621
552646
552701
552774
552851
552921
552975
553013
553038
553053
553060
553061
553057
553050
553038
553023
553003
552978
552948
552912
552869
552816
552751
552657
574469
576020
576526
576825
577114
577398
577661
577923
578066
578133
578138
578114
577987
577845
577747
577643
577601
577627
577669
577775
577891
577985
578070
578122
578156
578176
578186
578188
578183
578175
578163
578145
578125
578103
578075
578044
578005
577957
577905
577874
574477
575913
576435
576760
577078
577404
577746
577973
578127
578204
578169
578061
577899
577746
577567
577432
577346
577386
577487
577658
577827
577963
578058
578120
578158
578178
578186
578186
578179
578167
578153
578136
578118
578098
578074
578045
578010
577971
577931
577908
574419
575840
576361
576690
577018
577374
577731
578011
578161
578186
578166
578041
577865
577704
577495
577285
577175
577203
577362
577587
577799
577956
578063
578129
578166
578184
578189
578186
578176
578163
578146
578129
578112
578092
578069
578040
578008
577972
577936
577914
574380
575796
576311
576639
576972
577335
577708
578012
578156
578150
578150
578033
577846
577704
577492
577243
577097
577115
577301
577559
577791
577962
578074
578139
578175
578190
578193
578187
578176
578161
578143
578126
578109
578090
578066
578038
578007
577972
577937
577915
574371
575787
576300
576627
576962
577324
577701
578009
578151
578138
578144
578031
577842
577713
577501
577241
577086
577099
577290
577555
577791
577965
578077
578142
578177
578192
578194
578188
578176
578161
578142
578126
578109
578089
578065
578038
578007
577972
577937
577915
574395
575813
576331
576661
577000
577352
577716
578012
578159
578169
578156
578033
577854
577710
577501
577257
577127
577149
577325
577570
577792
577959
578069
578135
578171
578188
578191
578187
578176
578161
578144
578127
578110
578091
578067
578039
578007
577972
577936
577915
574442
575869
576394
576724
577051
577391
577737
577993
578148
578210
578168
578048
577885
577731
577534
577347
577251
577280
577417
577618
577808
577956
578060
578124
578162
578181
578188
578186
578177
578164
578149
578132
578115
578094
578071
578042
578009
577972
577934
577913
574488
575957
576472
576790
577096
577402
577695
577955
578110
578176
578163
578079
577916
577802
577667
577536
577473
577497
577574
577715
577857
577980
578064
578121
578157
578177
578186
578186
578181
578171
578158
578140
578122
578101
578077
578047
578011
577971
577926
577901
551112
551309
551557
551815
552070
552309
552519
552688
552799
552853
552854
552823
552812
552740
552679
552635
552623
552648
552702
552775
552852
552921
552976
553013
553038
553053
553060
553061
553057
553049
553038
553023
553003
552978
552948
552912
552869
552816
552751
552657
551245
551386
551598
551837
552067
552277
552459
552609
552720
552792
552830
552844
552842
552824
552803
552789
552787
552802
552832
552871
552914
552957
552998
553024
553043
553056
553062
553063
553060
553053
553042
553027
553008
552984
552953
552916
552869
552810
552737
552641
551270
551406
551611
551840
552057
552253
552422
552563
552674
552756
552813
552849
552867
552875
552877
552879
552885
552897
552915
552937
552962
552988
553011
553033
553048
553058
553062
553063
553060
553053
553042
553027
553008
552983
552952
552914
552865
552805
552730
552636
551272
551409
551617
551837
552048
552238
552401
552538
552649
552736
552802
552848
552881
552903
552918
552930
552940
552951
552964
552978
552994
553010
553025
553041
553051
553059
553062
553062
553058
553051
553040
553025
553005
552981
552950
552910
552861
552801
552727
552637
551270
551407
551613
551833
552041
552228
552388
552523
552635
552725
552795
552847
552888
552918
552939
552956
552968
552980
552991
553002
553014
553025
553035
553046
553054
553059
553061
553061
553056
553049
553038
553023
553003
552978
552947
552907
552859
552798
552726
552639
551269
551406
551610
551830
552038
552223
552383
552517
552629
552719
552791
552845
552890
552923
552948
552966
552981
552992
553003
553013
553022
553032
553040
553047
553055
553059
553061
553060
553055
553048
553037
553021
553002
552977
552945
552906
552857
552797
552726
552640
451021
451130
451289
451458
451621
451770
451902
452018
452118
452204
452277
452338
452388
452429
452460
452485
452503
452515
452523
452529
452533
452535
452536
452536
452537
452536
452532
452527
452520
452511
452499
452484
452466
452442
452414
452378
452332
452274
452202
452110
451022
451132
451291
451460
451624
451773
451906
452022
452122
452207
452278
452337
452386
452425
452456
452479
452497
452508
452516
452522
452527
452530
452532
452535
452536
452536
452533
452528
452522
452512
452501
452486
452467
452444
452416
452380
452334
452276
452202
452109
451024
451132
451291
451463
451628
451779
451913
452030
452130
452216
452285
452340
452385
452419
452445
452464
452478
452490
452499
452506
452512
452519
452523
452532
452535
452536
452534
452530
452524
452515
452503
452489
452471
452448
452419
452384
452338
452279
452204
452107
451018
451126
451285
451464
451634
451789
451928
452049
452151
452232
452294
452340
452375
452399
452416
452428
452438
452448
452460
452473
452487
452501
452518
452527
452533
452536
452536
452532
452526
452518
452506
452492
452474
452452
452424
452389