/*--------------------------------*- C++ -*----------------------------------*\
| =========                 |                                                 |
| \\      /  F ield         | OpenFOAM: The Open Source CFD Toolbox           |
|  \\    /   O peration     | Version:  2406                                  |
|   \\  /    A nd           | Website:  www.openfoam.com                      |
|    \\/     M anipulation  |                                                 |
\*---------------------------------------------------------------------------*/
FoamFile
{
    version     2.0;
    format      ascii;
    arch        "LSB;label=32;scalar=64";
    class       volScalarField;
    location    "0.0264";
    object      p_rgh;
}
// * * * * * * * * * * * * * * * * * * * * * * * * * * * * * * * * * * * * * //

dimensions      [1 -1 -2 0 0 0 0];

internalField   nonuniform List<scalar> 
207657
(
15508.3
-3189.19
-2352.35
-1799.18
-1395.5
-1087.79
-848.897
-663.44
-521.629
-416.229
-341.073
-290.258
-258.064
-238.683
-226.872
-218.168
-209.161
-197.645
-182.605
-164.069
-142.844
-120.211
-97.615
-76.3382
-57.0576
-41.3146
-29.9882
-23.5303
-22.2139
-26.2439
-35.831
-51.2526
-72.8906
-101.242
-136.893
-180.451
-232.477
-292.983
-360.066
-435.277
15513
-3183.22
-2346.78
-1793.23
-1388.68
-1079.9
-840.12
-654.433
-513.434
-410.117
-338.339
-291.883
-264.498
-249.81
-242.006
-236.164
-228.605
-217.076
-200.729
-179.911
-155.832
-130.176
-104.747
-81.0881
-59.7722
-42.6605
-30.4201
-23.3853
-21.7391
-25.6015
-35.1127
-50.4996
-72.1169
-100.458
-136.124
-179.753
-232.025
-292.936
-360.659
-436.784
15525.5
-3172.79
-2335.38
-1781.09
-1374.94
-1063.93
-822.179
-635.847
-496.454
-397.489
-332.778
-295.527
-278.243
-273.36
-273.858
-273.835
-269.057
-257.219
-237.861
-212.055
-181.889
-149.902
-118.614
-90.1718
-64.9374
-45.2268
-31.2662
-23.1777
-20.9561
-24.5449
-33.9395
-49.2651
-70.8239
-99.1053
-134.748
-178.432
-231.113
-292.728
-361.653
-439.582
15553.8
-3148.18
-2314.62
-1761.78
-1354.13
-1039.74
-794.545
-606.758
-469.609
-377.329
-324.108
-301.962
-300.893
-311.625
-325.158
-333.983
-332.992
-319.951
-295.122
-260.869
-220.783
-178.763
-138.202
-101.514
-71.871
-48.75
-32.4957
-23.0718
-20.1876
-23.5109
-32.8104
-48.0559
-69.4761
-97.5669
-133.053
-176.837
-229.707
-292.106
-362.644
-443.226
15608.7
-3102.67
-2281.97
-1735.11
-1326.99
-1008.03
-757.414
-566.743
-432.399
-348.318
-312.926
-312.607
-334.378
-367.119
-398.639
-419.12
-422.123
-406.075
-372.375
-325.44
-271.161
-215.448
-163.022
-117.205
-80.7213
-53.0408
-34.0862
-23.2774
-19.8482
-23.0612
-32.3615
-47.5022
-68.6264
-96.2586
-131.236
-174.783
-227.622
-290.666
-363.011
-447.036
15705.2
-3030.73
-2235.95
-1702.35
-1296.09
-971.721
-713.517
-518.008
-391.161
-322.505
-305.874
-330.022
-379.627
-440.835
-493.914
-528.343
-534.069
-512.278
-465.703
-401.744
-329.296
-256.685
-190.183
-134.067
-89.8263
-57.3658
-35.8086
-23.8866
-20.2484
-23.6544
-33.1179
-48.106
-68.6819
-95.4668
-129.469
-172.34
-224.701
-288.006
-362.073
-450.174
15847.4
-2935.14
-2181.89
-1669.18
-1267.2
-937.614
-672.626
-479.232
-355.756
-299.35
-302.499
-352.573
-430.962
-514.298
-584.822
-631.608
-646.211
-626.134
-564.462
-481.091
-388.473
-297.426
-215.577
-149.087
-97.7066
-60.9557
-37.2699
-24.6889
-21.2594
-25.1998
-35.0056
-49.7914
-69.579
-95.1945
-128.099
-169.711
-221.192
-284.354
-359.797
-452.071
15937.1
-2871.72
-2145.26
-1646.84
-1247.2
-912.766
-644.066
-446.476
-325.172
-279.422
-300.204
-373.335
-476.811
-579.931
-666.576
-725.362
-745.105
-720.139
-652.368
-552.007
-440.733
-332.783
-237.863
-161.481
-103.725
-63.3784
-38.0725
-25.1459
-22.0672
-26.5686
-36.7334
-51.4042
-70.6024
-95.3431
-127.427
-168.096
-218.835
-281.861
-358.478
-454.164
15979.6
-2840.82
-2127.35
-1636.2
-1236.07
-894.991
-625.129
-424.934
-304.742
-265.547
-298.376
-388.154
-509.777
-628.284
-726.62
-794.256
-818.155
-792.128
-723.294
-605.893
-479.56
-358.858
-254.628
-170.236
-107.597
-64.6333
-38.2469
-25.1874
-22.4607
-27.4262
-37.8733
-52.5112
-71.39
-95.648
-127.274
-167.395
-217.702
-280.727
-358.23
-456.157
15995.1
-2829.34
-2120.49
-1631.68
-1230.43
-883.313
-615.754
-415.226
-295.511
-258.959
-297.249
-395.634
-527.384
-654.011
-758.105
-829.914
-856.149
-830.575
-761.848
-635.29
-500.618
-373.096
-263.219
-174.734
-109.471
-65.1147
-38.1811
-25.0855
-22.5739
-27.8015
-38.4037
-53.0418
-71.7936
-95.853
-127.292
-167.175
-217.303
-280.373
-358.348
-457.356
15995.3
-2829.14
-2120.3
-1631.5
-1230.26
-883.142
-615.575
-415.019
-295.255
-258.63
-296.827
-395.111
-526.79
-653.418
-757.615
-829.543
-855.878
-830.374
-761.701
-635.179
-500.534
-373.037
-263.185
-174.714
-109.463
-65.1168
-38.1905
-25.0998
-22.5915
-27.8207
-38.4232
-53.0605
-71.8107
-95.868
-127.305
-167.185
-217.31
-280.377
-358.35
-457.357
15980.2
-2840.26
-2126.83
-1635.71
-1235.6
-894.506
-624.6
-424.311
-303.978
-264.585
-297.151
-386.608
-508.006
-626.55
-725.185
-793.165
-817.363
-791.545
-722.886
-605.58
-479.328
-358.693
-254.527
-170.183
-107.581
-64.6455
-38.2793
-25.2337
-22.5159
-27.4857
-37.933
-52.5682
-71.4422
-95.6939
-127.313
-167.427
-217.725
-280.743
-358.238
-456.16
15938
-2870.85
-2144.43
-1646.06
-1246.43
-911.954
-643.137
-445.356
-323.839
-277.827
-298.228
-370.796
-473.779
-577.081
-664.309
-723.672
-743.906
-719.245
-651.709
-551.522
-440.386
-332.545
-237.703
-161.404
-103.707
-63.4022
-38.1267
-25.2214
-22.1559
-26.6639
-36.8288
-51.4955
-70.6863
-95.4174
-127.491
-168.148
-218.874
-281.888
-358.493
-454.169
15848.5
-2933.99
-2180.79
-1668.12
-1266.13
-936.463
-671.27
-477.551
-353.784
-297.181
-300.004
-349.553
-427.33
-510.889
-582.119
-629.612
-644.836
-625.104
-563.678
-480.505
-388.052
-297.144
-215.409
-149.001
-97.6877
-60.9869
-37.3377
-24.7821
-21.3688
-25.3172
-35.124
-49.9054
-69.6848
-95.2892
-128.181
-169.778
-221.244
-284.391
-359.819
-452.077
15706.5
-3029.38
-2234.62
-1701.05
-1294.77
-970.291
-711.824
-515.861
-388.556
-319.901
-303.13
-326.982
-376.337
-437.655
-491.226
-526.268
-532.514
-511.114
-464.822
-401.091
-328.831
-256.375
-189.994
-133.972
-89.8028
-57.3953
-35.8766
-23.9813
-20.3603
-23.7754
-33.2412
-48.2261
-68.7948
-95.5692
-129.559
-172.415
-224.759
-288.047
-362.097
-450.182
15610.2
-3101.16
-2280.47
-1733.62
-1325.48
-1006.44
-755.641
-564.685
-430.047
-345.813
-310.291
-309.769
-331.455
-364.315
-396.16
-417.087
-420.539
-404.86
-371.457
-324.765
-270.686
-215.132
-162.832
-117.109
-80.6958
-53.067
-34.1496
-23.3667
-19.9541
-23.1765
-32.4798
-47.6187
-68.7366
-96.3595
-131.325
-174.858
-227.681
-290.707
-363.035
-447.043
15555.5
-3146.51
-2312.97
-1760.13
-1352.46
-1038.01
-792.72
-604.77
-467.425
-374.957
-321.549
-299.271
-298.227
-309.127
-322.939
-332.113
-331.484
-318.771
-294.226
-260.212
-220.323
-178.46
-138.02
-101.422
-71.8459
-48.7727
-32.5528
-23.1527
-20.2842
-23.6164
-32.9194
-48.1637
-69.579
-97.6615
-133.136
-176.908
-229.763
-292.146
-362.668
-443.233
15527.4
-3171.02
-2333.59
-1779.28
-1373.12
-1062.08
-820.279
-633.847
-494.302
-395.145
-330.188
-292.756
-275.629
-271.017
-271.821
-272.117
-267.653
-256.11
-237.016
-211.437
-181.458
-149.62
-118.444
-90.0853
-64.9121
-45.2454
-31.316
-23.2493
-21.042
-24.6394
-34.0376
-49.3627
-70.9176
-99.1918
-134.825
-178.498
-231.165
-292.766
-361.676
-439.589
15515
-3181.26
-2344.84
-1791.29
-1386.73
-1077.94
-838.14
-652.381
-511.237
-407.705
-335.512
-288.625
-261.696
-247.473
-240.054
-234.541
-227.282
-216.031
-199.933
-179.331
-155.429
-129.912
-104.589
-81.0075
-59.7473
-42.6756
-30.4637
-23.4488
-21.8161
-25.6866
-35.2015
-50.5883
-72.2023
-100.537
-136.194
-179.814
-232.073
-292.971
-360.68
-436.791
15510.4
-3187.13
-2350.31
-1797.15
-1393.46
-1085.76
-846.865
-661.357
-519.402
-413.726
-338.064
-286.661
-255.112
-236.32
-224.948
-216.59
-207.882
-196.636
-181.839
-163.512
-142.46
-119.961
-97.4656
-76.262
-57.0339
-41.3285
-30.029
-23.5899
-22.2863
-26.324
-35.9148
-51.3364
-72.9715
-101.317
-136.96
-180.508
-232.523
-293.016
-360.085
-435.283
14568.8
-2788.53
-2183.41
-1711.62
-1343.99
-1054.75
-826.354
-647.152
-509.002
-405.487
-330.937
-279.799
-246.804
-226.346
-213.461
-203.901
-194.399
-182.816
-168.142
-150.358
-130.19
-108.82
-87.6009
-67.7228
-49.5501
-34.8645
-24.4766
-18.7887
-18.0495
-22.4574
-32.2281
-47.6526
-69.1356
-97.2095
-132.512
-175.722
-227.592
-288.189
-355.791
-431.977
14573.6
-2783.18
-2178.4
-1706.11
-1337.53
-1047.15
-817.805
-638.318
-500.904
-399.308
-328.092
-281.235
-252.956
-237.118
-228.191
-221.468
-213.412
-201.836
-185.887
-165.861
-142.879
-118.523
-94.5052
-72.335
-52.0916
-36.0793
-24.8158
-18.576
-17.5212
-21.7682
-31.4647
-46.8527
-68.3106
-96.3673
-131.679
-174.949
-227.059
-288.055
-356.31
-433.448
14585.7
-2774.9
-2168.19
-1694.95
-1324.57
-1031.75
-800.254
-619.961
-484.018
-386.726
-322.362
-284.535
-266.237
-260.128
-259.47
-258.571
-253.326
-241.473
-222.535
-197.535
-168.479
-137.806
-107.929
-81.1998
-56.9063
-38.4017
-25.4966
-18.2526
-16.6524
-20.6418
-30.2275
-45.5527
-66.9442
-94.9296
-130.219
-173.662
-226.009
-287.664
-357.13
-436.154
14613.3
-2751.27
-2149.56
-1677.53
-1305.07
-1008.29
-772.865
-590.786
-456.937
-366.469
-313.304
-290.517
-288.475
-298.06
-310.577
-318.686
-317.365
-304.343
-279.828
-246.197
-207.035
-166.185
-126.87
-90.854
-63.324
-41.6238
-26.5304
-18.0286
-15.8201
-19.5772
-29.0843
-44.331
-65.572
-93.3389
-128.413
-171.838
-224.362
-286.722
-357.771
-439.58
14669.2
-2708.6
-2120.89
-1654.07
-1279.86
-977.196
-735.245
-549.598
-418.636
-338.441
-300.059
-300.679
-322.117
-354.071
-385.295
-405.522
-408.456
-392.496
-358.633
-311.594
-257.542
-202.476
-151.09
-106.744
-71.7805
-45.5925
-27.9446
-18.1902
-15.5396
-19.2606
-28.8092
-43.956
-64.8719
-92.1248
-126.594
-169.665
-221.98
-284.749
-357.435
-442.863
14782.3
-2634.26
-2078.65
-1625.54
-1251.41
-940.866
-688.802
-495.185
-371.063
-305.539
-291.285
-318.376
-369.336
-429.429
-486.912
-521.479
-525.221
-504.266
-456.139
-390.3
-316.505
-243.45
-177.519
-122.806
-80.2774
-49.5551
-29.5588
-18.9217
-16.2674
-20.3551
-30.1654
-45.1415
-65.3876
-91.618
-125.179
-167.084
-218.541
-281.09
-355.056
-444.748
14994.5
-2519.23
-2026.24
-1597.39
-1225.69
-906.106
-641.692
-453.032
-332.764
-280.302
-287.986
-343.978
-428.037
-516.493
-588.01
-635.729
-650.963
-630.168
-561.616
-473.159
-376.732
-283.665
-201.909
-136.72
-87.3122
-52.6775
-30.9379
-20.0119
-17.9427
-22.9459
-33.3119
-47.9821
-67.0575
-91.5274
-123.404
-163.756
-213.859
-275.56
-350.071
-443.831
15100.8
-2455.06
-1995.72
-1581.78
-1210.56
-883.779
-614.247
-416.257
-297.478
-257.983
-285.503
-367.138
-480.477
-587.717
-675.963
-738.139
-759.448
-731.143
-654.375
-546.59
-429.103
-317.472
-222.678
-147.548
-92.1527
-54.3896
-31.4598
-20.5514
-19.1382
-24.9494
-35.8253
-50.3263
-68.6178
-91.9475
-122.884
-162.132
-211.135
-272.169
-347.331
-444.584
15141.9
-2429.4
-1984.72
-1578.05
-1205.28
-871.698
-596.835
-393.43
-274.93
-242.325
-283.095
-383.208
-517.143
-639.689
-739.398
-812.14
-838.32
-807.129
-722.396
-600.381
-466.881
-342.001
-236.982
-154.505
-94.7406
-54.8408
-31.237
-20.5199
-19.7139
-26.1741
-37.3926
-51.8242
-69.7222
-92.5201
-122.986
-161.601
-209.98
-270.743
-346.553
-446.106
15154.3
-2421.75
-1981.68
-1576.45
-1203.21
-861.888
-589.328
-384.434
-265.87
-235.434
-281.427
-391.015
-537.14
-667.8
-772.743
-849.661
-878.518
-847.684
-766.195
-630.017
-487.527
-355.951
-244.62
-157.955
-95.8065
-54.7953
-30.8858
-20.3225
-19.8778
-26.7008
-38.094
-52.5033
-70.2546
-92.8714
-123.146
-161.483
-209.605
-270.31
-346.507
-447.161
15154.6
-2421.52
-1981.48
-1576.26
-1203.04
-861.713
-589.158
-384.236
-265.623
-235.108
-280.996
-390.456
-536.458
-667.113
-772.231
-849.288
-878.252
-847.482
-766.041
-629.898
-487.439
-355.897
-244.589
-157.94
-95.8041
-54.8025
-30.9001
-20.3416
-19.9
-26.7243
-38.1174
-52.5254
-70.2748
-92.889
-123.161
-161.494
-209.614
-270.315
-346.51
-447.162
15142.5
-2428.82
-1984.19
-1577.57
-1204.82
-871.253
-596.356
-392.86
-274.224
-241.403
-281.873
-381.576
-515.124
-637.759
-737.879
-811.016
-837.53
-806.535
-721.946
-600.057
-466.647
-341.83
-236.884
-154.46
-94.7339
-54.8626
-31.279
-20.5756
-19.7781
-26.2424
-37.46
-51.8881
-69.7805
-92.5711
-123.03
-161.635
-210.005
-270.759
-346.562
-446.109
15101.7
-2454.15
-1994.88
-1581.01
-1209.82
-883.017
-613.37
-415.174
-296.201
-256.429
-283.518
-364.308
-475.503
-584.323
-673.511
-736.365
-758.254
-730.212
-653.692
-546.096
-428.758
-317.248
-222.542
-147.486
-92.1481
-54.4275
-31.5286
-20.641
-19.2411
-25.0584
-35.9327
-50.4278
-68.7105
-92.0288
-122.954
-162.188
-211.177
-272.198
-347.347
-444.589
14995.7
-2518.05
-2025.13
-1596.34
-1224.66
-905.007
-640.367
-451.283
-330.724
-278.152
-285.487
-340.813
-423.577
-512.392
-585.086
-633.678
-649.758
-629.204
-560.847
-472.576
-376.318
-283.392
-201.747
-136.646
-87.3055
-52.7214
-31.0185
-20.1178
-18.0646
-23.0757
-33.441
-48.1055
-67.1712
-91.6286
-123.491
-163.828
-213.913
-275.598
-350.094
-443.838
14783.7
-2632.89
-2077.33
-1624.25
-1250.13
-939.487
-687.114
-492.762
-367.764
-302.782
-288.48
-315.22
-365.826
-425.91
-483.819
-519.219
-523.721
-503.127
-455.266
-389.653
-316.048
-243.148
-177.34
-122.721
-80.263
-49.5933
-29.6351
-19.0243
-16.3867
-20.4832
-30.295
-45.2675
-65.5057
-91.725
-125.273
-167.162
-218.602
-281.133
-355.082
-444.756
14670.7
-2707.09
-2119.4
-1652.6
-1278.39
-975.654
-733.526
-547.549
-416.235
-335.912
-297.446
-297.788
-319.123
-351.177
-382.724
-403.44
-406.875
-391.288
-357.721
-310.929
-257.078
-202.174
-150.911
-106.659
-71.764
-45.626
-28.0142
-18.2846
-15.6501
-19.3797
-28.9311
-44.0754
-64.985
-92.2281
-126.685
-169.741
-222.041
-284.792
-357.46
-442.871
14615
-2749.62
-2147.92
-1675.9
-1303.43
-1006.61
-771.095
-588.854
-454.808
-364.138
-310.769
-287.831
-285.812
-295.559
-308.354
-316.817
-315.869
-303.177
-278.948
-245.558
-206.594
-165.9
-126.704
-90.7763
-63.3085
-41.6536
-26.5927
-18.1136
-15.9197
-19.6852
-29.1952
-44.4404
-65.6761
-93.4347
-128.498
-171.91
-224.418
-286.763
-357.795
-439.588
14587.5
-2773.12
-2166.41
-1693.17
-1322.77
-1029.94
-798.402
-618.019
-481.925
-384.456
-319.817
-281.736
-263.663
-257.835
-257.471
-256.882
-251.949
-240.389
-221.715
-196.942
-168.074
-137.546
-107.778
-81.1257
-56.8906
-38.4271
-25.5511
-18.3274
-16.7406
-20.7378
-30.3267
-45.6509
-67.0382
-95.0165
-130.296
-173.728
-226.061
-287.701
-357.152
-436.161
14575.5
-2781.25
-2176.47
-1704.18
-1335.6
-1045.22
-815.873
-636.324
-498.731
-397.047
-325.269
-277.273
-250.122
-234.856
-226.303
-219.891
-212.125
-200.822
-185.122
-165.312
-142.505
-118.285
-94.3671
-72.2689
-52.0766
-36.101
-24.8637
-18.6423
-17.5998
-21.8542
-31.554
-46.9416
-68.3959
-96.4464
-131.749
-175.009
-227.107
-288.09
-356.33
-433.455
14570.9
-2786.49
-2181.39
-1709.6
-1341.97
-1052.74
-824.371
-645.141
-506.862
-403.093
-327.909
-275.191
-243.813
-224.076
-211.616
-202.376
-193.158
-181.841
-167.41
-149.835
-129.837
-108.597
-87.472
-67.6611
-49.536
-34.8845
-24.5211
-18.8505
-18.123
-22.5379
-32.3118
-47.7361
-69.216
-97.2841
-132.579
-175.778
-227.638
-288.222
-355.81
-431.983
13207.4
-2350.74
-1939.87
-1566.78
-1252.29
-993.694
-783.931
-616.21
-484.892
-384.916
-311.366
-259.355
-224.594
-201.813
-186.647
-175.281
-164.737
-153.014
-139.097
-122.863
-104.864
-86.0753
-67.6535
-50.6524
-34.6734
-22.1324
-13.6368
-9.48987
-9.89846
-15.051
-25.1747
-40.5871
-61.7361
-89.2211
-123.783
-166.215
-217.682
-278.37
-346.979
-425.21
13211
-2348.24
-1935.94
-1562.07
-1246.53
-986.702
-775.872
-607.799
-477.135
-378.751
-308.381
-260.41
-230.13
-211.783
-200.434
-191.822
-182.708
-171.035
-155.934
-137.575
-116.885
-95.2186
-74.056
-54.8958
-36.8342
-23.0889
-13.7972
-9.14504
-9.26214
-14.2635
-24.3134
-39.6838
-60.7972
-88.2507
-122.809
-165.315
-216.979
-278.056
-347.344
-426.608
13220.6
-2340.6
-1927.57
-1552.72
-1235.06
-972.491
-759.263
-590.117
-460.574
-366.276
-302.33
-263.008
-242.365
-233.499
-230.26
-227.42
-221.151
-209.28
-191.29
-168.07
-141.426
-113.546
-86.4478
-61.2806
-40.8143
-24.9379
-14.1604
-8.59382
-8.21586
-12.9826
-22.9272
-38.2278
-59.2571
-86.6094
-121.11
-163.875
-215.601
-277.28
-347.803
-429.117
13242.7
-2322.59
-1913.66
-1539.05
-1218.15
-950.589
-732.612
-561.093
-433.171
-345.557
-292.763
-268.067
-263.55
-270.403
-280.436
-286.848
-284.796
-271.837
-248.15
-216.065
-179.091
-140.915
-104.575
-71.8048
-46.7107
-27.64
-14.8286
-8.13745
-7.23993
-11.8239
-21.7111
-36.9341
-57.7949
-84.8879
-119.092
-161.704
-213.494
-275.704
-347.719
-432.059
13293.2
-2289.18
-1895.12
-1522.37
-1196.85
-920.902
-694.488
-518.709
-392.377
-315.674
-279.529
-277.654
-297.138
-327.141
-356.224
-375.687
-379.264
-363.415
-329.508
-282.72
-229.604
-176.228
-127.134
-86.0005
-54.1825
-30.9901
-15.9265
-8.2226
-7.0564
-11.7198
-21.7141
-36.8525
-57.3599
-83.8811
-117.573
-159.442
-210.634
-272.734
-345.921
-434.091
13429.7
-2219.42
-1864.09
-1503.61
-1173.65
-884.773
-644.391
-464.944
-333.448
-272.714
-262.72
-295.522
-348.061
-408.281
-459.335
-494.235
-506.927
-485.889
-435.243
-366.105
-290.075
-216.524
-152.069
-100.507
-61.5623
-34.3466
-17.4231
-9.26137
-8.45876
-13.8105
-24.2567
-39.2086
-58.8435
-83.9517
-116.482
-156.774
-206.417
-267.222
-340.473
-432.906
13859.1
-2070.76
-1822.2
-1488.31
-1154.82
-847.991
-581.777
-403.923
-289.385
-244.295
-260.053
-328.15
-425.336
-524.207
-593.809
-642.749
-660.334
-628.06
-554.758
-456.503
-352.442
-255.429
-174.595
-112.316
-67.0679
-36.7217
-18.8314
-11.1362
-11.7585
-19.0323
-30.6253
-44.97
-62.4251
-84.1411
-113.669
-151.609
-198.878
-257.185
-328.487
-423.035
13993.4
-2014.79
-1809.17
-1488.14
-1150.07
-830.133
-556.023
-355.118
-241.474
-217.713
-257.976
-355.757
-482.253
-603.089
-692.201
-763.732
-790.179
-755.046
-660.293
-535.319
-404.504
-284.995
-191.218
-119.774
-69.5126
-37.0483
-18.8476
-11.8866
-13.7537
-22.3172
-34.8013
-48.8407
-65.1119
-85.1457
-113.822
-150.315
-195.738
-252.155
-322.69
-420.529
14025.8
-2004.04
-1814.61
-1500.37
-1157.32
-827.497
-540.554
-328.834
-214.245
-198.205
-254.988
-374.475
-529.171
-661.143
-760.202
-848.328
-882.212
-842.176
-732.889
-589.521
-439.004
-306.506
-201.019
-122.92
-69.4122
-35.8634
-17.8416
-11.7326
-14.7302
-24.3475
-37.2495
-51.1087
-66.832
-86.4777
-114.611
-150.303
-194.719
-250.289
-320.88
-421.028
14030
-2005.57
-1820.34
-1503.78
-1164.64
-834.742
-538.244
-321.77
-206.416
-191.505
-252.507
-382.543
-554.534
-693.719
-796.755
-888.851
-926.739
-885.219
-765.295
-616.727
-458.432
-319.705
-205.981
-123.942
-68.7276
-34.7152
-16.9041
-11.3404
-15.0031
-25.2106
-38.2896
-52.0486
-67.5833
-87.4329
-115.103
-150.432
-194.443
-249.747
-320.526
-421.778
14030.4
-2005.25
-1820.07
-1503.54
-1164.45
-834.586
-538.083
-321.581
-206.175
-191.177
-252.049
-381.915
-553.349
-692.726
-796.247
-888.504
-926.502
-885.019
-765.126
-616.592
-458.338
-319.684
-205.966
-123.943
-68.7407
-34.7378
-16.9333
-11.3736
-15.0382
-25.2468
-38.324
-52.0807
-67.6127
-87.4594
-115.125
-150.449
-194.455
-249.755
-320.53
-421.78
14026.5
-2003.4
-1814.04
-1499.87
-1156.9
-827.133
-540.193
-328.393
-213.704
-197.382
-253.811
-372.774
-526.418
-658.842
-758.573
-847.164
-881.461
-841.577
-732.43
-589.189
-438.779
-306.305
-200.94
-122.902
-69.4338
-35.9138
-17.9116
-11.8147
-14.8195
-24.44
-37.3379
-51.1913
-66.9073
-86.5439
-114.666
-150.347
-194.75
-250.308
-320.89
-421.031
13994.4
-2013.79
-1808.28
-1487.38
-1149.39
-829.487
-555.265
-354.127
-240.384
-216.291
-256.077
-353.09
-477.381
-599.291
-689.474
-761.753
-789.011
-753.949
-659.556
-534.81
-404.169
-284.814
-191.119
-119.749
-69.5473
-37.1267
-18.9564
-12.015
-13.8945
-22.4634
-34.9402
-48.9693
-65.228
-85.2465
-113.907
-150.383
-195.788
-252.188
-322.708
-420.535
13860.4
-2069.49
-1821.03
-1487.26
-1153.86
-847.011
-580.567
-402.017
-287.38
-242.286
-257.681
-325.114
-420.889
-518.412
-590.699
-640.622
-659.805
-627.253
-554.016
-455.926
-352.043
-255.183
-174.464
-112.272
-67.0927
-36.7977
-18.944
-11.2734
-11.9115
-19.1932
-30.7807
-45.1162
-62.5584
-84.2579
-113.769
-151.69
-198.94
-257.227
-328.512
-423.043
13431.2
-2218.02
-1862.77
-1502.36
-1172.45
-883.529
-642.828
-461.893
-327.557
-269.756
-259.803
-292.145
-344.386
-404.513
-455.571
-491.863
-505.618
-484.785
-434.367
-365.462
-289.631
-216.238
-151.908
-100.44
-61.566
-34.4022
-17.5159
-9.37945
-8.59273
-13.9524
-24.399
-39.3462
-58.9723
-84.0681
-116.584
-156.859
-206.484
-267.269
-340.5
-432.915
13294.7
-2287.68
-1893.66
-1520.94
-1195.45
-919.476
-692.927
-516.787
-390.062
-313.213
-276.604
-274.626
-294.026
-324.121
-353.538
-373.53
-377.694
-362.21
-328.604
-282.07
-229.165
-175.952
-126.981
-85.9373
-54.1838
-31.0384
-16.0083
-8.32744
-7.17572
-11.8467
-21.8426
-36.9779
-57.4785
-83.9895
-117.669
-159.523
-210.697
-272.779
-345.947
-434.099
13244.4
-2320.97
-1912.06
-1537.47
-1216.58
-948.995
-730.958
-559.298
-431.194
-343.331
-290.262
-265.418
-260.909
-267.91
-278.221
-284.986
-283.326
-270.698
-247.299
-215.46
-178.689
-140.669
-104.442
-71.7528
-46.7138
-27.6833
-14.9008
-8.22977
-7.34514
-11.936
-21.8253
-37.0461
-57.9011
-84.9855
-119.179
-161.777
-213.552
-275.745
-347.743
-432.067
13222.4
-2338.84
-1925.82
-1550.97
-1233.32
-970.737
-757.504
-588.299
-458.626
-364.146
-299.921
-260.412
-239.964
-231.327
-228.343
-225.792
-219.828
-208.246
-190.522
-167.53
-141.073
-113.332
-86.3328
-61.2308
-40.8171
-24.9759
-14.2235
-8.67437
-8.30787
-13.0811
-23.0278
-38.3269
-59.3516
-86.6965
-121.188
-163.941
-215.653
-277.317
-347.825
-429.124
13212.9
-2346.35
-1934.05
-1560.17
-1244.63
-984.816
-774.04
-605.948
-475.063
-376.803
-305.853
-256.659
-227.627
-209.745
-198.683
-190.335
-181.488
-170.083
-155.233
-137.09
-116.572
-95.0308
-73.9565
-54.8584
-36.8373
-23.1223
-13.8524
-9.21575
-9.34324
-14.3507
-24.403
-39.7724
-60.8819
-88.329
-122.879
-165.374
-217.026
-278.09
-347.365
-426.614
13209.5
-2348.74
-1937.88
-1564.79
-1250.3
-991.729
-782.047
-614.362
-482.96
-382.809
-308.84
-255.793
-222.12
-199.832
-184.967
-173.855
-163.567
-152.104
-138.435
-122.412
-104.577
-85.9062
-67.5652
-50.6189
-34.6773
-22.1636
-13.6879
-9.55532
-9.97364
-15.132
-25.258
-40.6697
-61.8153
-89.2944
-123.848
-166.271
-217.726
-278.402
-346.998
-425.216
11619.1
-1962.44
-1680.1
-1393.44
-1134.55
-912.083
-726.061
-573.658
-451.633
-356.291
-283.695
-230.3
-192.094
-165.393
-146.481
-132.177
-119.954
-108.006
-95.2879
-81.487
-66.8701
-52.0735
-37.9263
-25.3575
-12.6906
-3.46017
2.16121
3.9961
1.88304
-4.35985
-14.9795
-30.3316
-50.9224
-77.4428
-110.801
-152.185
-202.486
-263.029
-333.03
-414.554
11621.4
-1960.81
-1677.06
-1389.69
-1129.75
-906.039
-718.89
-566.143
-444.59
-350.843
-280.628
-230.298
-196.558
-173.93
-158.509
-146.761
-135.909
-124.096
-110.393
-94.7396
-77.7213
-60.306
-43.5033
-27.8599
-14.2226
-4.05745
2.24804
4.52919
2.68178
-3.4153
-13.9548
-29.2515
-49.7873
-76.2498
-109.579
-151.122
-201.504
-262.427
-333.153
-415.833
11627.4
-1955.71
-1671.03
-1382.71
-1120.38
-893.715
-704.035
-549.872
-428.909
-338.306
-274.211
-231.864
-206.949
-193.173
-185.403
-179.171
-171.136
-159.279
-142.99
-122.865
-100.311
-77.1061
-54.8037
-33.4944
-17.3903
-5.29755
2.32338
5.413
4.00916
-1.86683
-12.2933
-27.5008
-47.9212
-74.228
-107.371
-148.845
-199.527
-261.039
-333.042
-418.022
11639.3
-1947.25
-1663.97
-1374.23
-1107.12
-874.39
-679.042
-521.709
-401.765
-317.203
-263.892
-235.283
-225.926
-227.597
-233.04
-236.183
-232.571
-219.79
-197.872
-168.91
-136.071
-102.682
-71.4893
-43.2971
-22.3279
-7.25098
2.16917
6.21826
5.24508
-0.479056
-10.8514
-25.9727
-46.2056
-72.217
-105.024
-146.227
-196.737
-258.51
-331.814
-420.107
11669.6
-1934.42
-1663.81
-1367.48
-1091.44
-847.09
-640.74
-477.449
-358.913
-284.284
-249.632
-243.653
-257.914
-284.06
-309.98
-327.593
-330.52
-314.737
-281.514
-236.346
-185.978
-136.204
-90.6178
-55.1222
-28.4289
-9.80552
1.45376
6.22729
5.35594
-0.523872
-11.0457
-26.1194
-46.0345
-71.4623
-104.109
-144.052
-193.426
-254.259
-327.732
-419.652
11795.2
-1901.21
-1658.09
-1365.73
-1076.52
-811.639
-585.553
-414.905
-298.645
-232.422
-221.593
-262.422
-310.274
-372.333
-424.606
-461.873
-475.651
-453.84
-399.062
-326.141
-248.191
-175.103
-113.833
-67.7169
-34.4901
-12.5703
-0.102509
4.61918
3.00954
-3.8558
-15.0355
-30.0089
-49.0575
-72.7634
-104.116
-142.318
-189.206
-246.907
-317.769
-413.02
12847.7
-1764.04
-1654.21
-1376.61
-1068.45
-769.716
-505.536
-336.931
-233.074
-196.782
-220.762
-307.612
-432.048
-528.554
-604.06
-652.557
-677.698
-648.642
-546.251
-430.076
-314.395
-211.736
-133.593
-76.8879
-38.3361
-14.4641
-2.17104
0.926566
-3.6285
-14.9352
-28.8111
-42.3638
-56.8835
-73.0124
-98.0778
-132.515
-175.465
-227.765
-290.517
-378.112
12992.8
-1754.2
-1680.26
-1400.2
-1080.63
-757.331
-473.084
-259.745
-153.641
-167.987
-223.163
-345.029
-497.951
-623.844
-705.901
-801.859
-842.066
-796.97
-670.848
-516.319
-364.445
-238.434
-143.986
-78.9291
-37.0785
-12.7657
-1.52399
-0.18745
-6.75005
-19.8519
-35.5371
-48.4757
-61.3122
-76.3839
-100.48
-133.044
-173.009
-221.214
-280.071
-370.247
12996.4
-1777.1
-1715.67
-1438.02
-1109.09
-768.741
-455.984
-226.303
-119.013
-141.368
-223.534
-367.082
-543.35
-683.765
-771.427
-904.528
-958.132
-904.948
-753.387
-569.295
-389.241
-248.621
-144.956
-75.5693
-32.6962
-9.11421
0.590385
0.070201
-8.43658
-23.3771
-39.3661
-51.8339
-63.7488
-78.8097
-102.614
-134.242
-172.668
-219.144
-276.874
-369.075
12984.2
-1796.04
-1738.28
-1460.89
-1132.29
-787.035
-459.785
-223.055
-116.267
-139.08
-223.745
-374.723
-564.325
-716.199
-810.976
-946.788
-1010.07
-956.721
-789.533
-592.944
-406.774
-253.294
-143.577
-72.0755
-29.0443
-6.18369
2.46143
0.788848
-8.86329
-24.8618
-40.8889
-53.0256
-64.4945
-79.5335
-103.508
-134.79
-172.623
-218.556
-276.115
-369.334
12984.7
-1795.53
-1737.85
-1460.52
-1132.02
-786.814
-459.595
-222.829
-115.974
-138.72
-223.214
-374.138
-563.213
-714.057
-810.799
-946.576
-1009.93
-956.519
-789.306
-592.763
-406.634
-253.269
-143.59
-72.1075
-29.0886
-6.23727
2.40162
0.726407
-8.92534
-24.9239
-40.9453
-53.0779
-64.542
-79.5748
-103.544
-134.819
-172.644
-218.568
-276.121
-369.337
12997.2
-1776.38
-1715.06
-1437.52
-1108.72
-768.529
-455.863
-226.148
-118.86
-140.695
-222.443
-365.791
-541.071
-680.344
-769.668
-903.346
-957.551
-904.39
-752.928
-568.966
-389.078
-248.516
-144.93
-75.5978
-32.7642
-9.21131
0.475611
-0.0526305
-8.56394
-23.5085
-39.4861
-51.9453
-63.8503
-78.8964
-102.688
-134.3
-172.708
-219.167
-276.884
-369.08
12994.1
-1753.03
-1679.28
-1399.42
-1080.05
-756.901
-472.53
-258.903
-153.034
-166.637
-221.337
-342.984
-496.256
-620.42
-702.342
-799.429
-840.936
-795.194
-670.019
-515.789
-364.131
-238.287
-143.949
-78.9757
-37.188
-12.9205
-1.70782
-0.387229
-6.9605
-20.0701
-35.7324
-48.6531
-61.4704
-76.5171
-100.592
-133.133
-173.073
-221.254
-280.091
-370.256
12849.3
-1762.62
-1652.95
-1375.55
-1067.6
-768.982
-504.693
-334.586
-232.361
-195.295
-218.726
-304.951
-427.887
-525.77
-600.724
-650.448
-679.706
-648.064
-545.519
-429.507
-314.031
-211.539
-133.517
-76.8991
-38.417
-14.5971
-2.34048
0.734336
-3.83678
-15.1547
-29.0121
-42.5498
-57.0512
-73.1569
-98.2006
-132.613
-175.539
-227.815
-290.546
-378.125
11796.8
-1899.76
-1656.75
-1364.52
-1075.43
-810.643
-584.719
-415.013
-300.966
-230.174
-218.479
-258.374
-306.276
-368.362
-422.121
-459.497
-473.962
-452.65
-398.15
-325.494
-247.761
-174.831
-113.692
-67.6719
-34.5155
-12.647
-0.215111
4.48281
2.85861
-4.01377
-15.1929
-30.1613
-49.2005
-72.8932
-104.23
-142.414
-189.281
-246.96
-317.8
-413.03
11671.1
-1932.93
-1662.36
-1366.1
-1090.14
-845.844
-639.526
-476.276
-357.552
-282.14
-246.917
-240.452
-254.58
-280.85
-307.328
-325.45
-328.831
-313.497
-280.607
-235.717
-185.576
-135.971
-90.5035
-55.0902
-28.4548
-9.87336
1.35618
6.10972
5.22629
-0.659351
-11.1817
-26.2517
-46.1592
-71.5764
-104.21
-144.136
-193.492
-254.306
-327.76
-419.661
11640.9
-1945.68
-1662.44
-1372.71
-1105.63
-872.922
-677.566
-520.176
-400.044
-315.167
-261.509
-232.696
-223.314
-225.121
-230.868
-234.374
-231.117
-218.682
-197.064
-168.357
-135.732
-102.497
-71.4061
-43.2814
-22.3567
-7.31228
2.08413
6.11685
5.1334
-0.595809
-10.9689
-26.0872
-46.3138
-72.3161
-105.113
-146.301
-196.796
-258.551
-331.839
-420.115
11629.1
-1954.02
-1669.34
-1381.02
-1118.71
-892.048
-702.407
-548.226
-427.184
-336.344
-271.936
-229.609
-204.85
-191.192
-183.62
-177.639
-169.887
-158.322
-142.3
-122.405
-100.041
-76.9651
-54.7448
-33.4906
-17.4194
-5.35226
2.24964
5.32573
3.9131
-1.96753
-12.395
-27.6001
-48.0154
-74.3144
-107.448
-148.91
-199.578
-261.076
-333.063
-418.029
11623.3
-1958.97
-1675.22
-1387.83
-1127.9
-904.191
-717.22
-564.522
-443.044
-348.816
-278.606
-228.937
-194.878
-172.242
-156.948
-145.392
-134.781
-123.234
-109.792
-94.3573
-77.5034
-60.1965
-43.4608
-27.8548
-14.2499
-4.10635
2.18332
4.45296
2.59781
-3.50358
-14.0442
-29.3393
-49.8707
-76.3266
-109.647
-151.179
-201.55
-262.46
-333.173
-415.839
11621
-1960.51
-1678.17
-1391.5
-1132.6
-910.15
-724.309
-572.096
-450.032
-354.551
-281.978
-229.045
-190.575
-163.833
-145.016
-130.881
-118.876
-107.187
-94.735
-81.1511
-66.6886
-51.99
-37.8984
-25.3624
-12.7187
-3.50602
2.10166
3.92624
1.80607
-4.44093
-15.0618
-30.4126
-50.9996
-77.5139
-110.865
-152.239
-202.529
-263.06
-333.048
-414.559
9895.53
-1633.13
-1430.12
-1210.66
-1002.72
-817.419
-657.831
-523.575
-412.405
-321.744
-249.544
-193.344
-150.122
-117.584
-93.146
-74.5385
-59.8764
-47.6013
-36.5849
-26.2039
-16.3023
-7.02662
1.35446
8.77288
16.0251
20.6158
22.3507
21.1081
16.7552
9.10554
-2.1179
-17.3186
-37.0669
-62.1429
-93.5968
-132.936
-181.47
-241.327
-312.826
-399.073
9897.07
-1631.84
-1427.57
-1207.85
-999.083
-812.774
-652.473
-517.664
-406.361
-316.926
-246.726
-193.484
-153.18
-123.826
-102.21
-85.734
-72.294
-60.3151
-48.715
-37.0274
-25.2954
-13.9527
-3.41906
6.89876
15.0253
20.4054
22.7227
21.8714
17.7679
10.2727
-0.84967
-15.9682
-35.6297
-60.6058
-91.9571
-131.347
-180.052
-240.312
-312.61
-400.186
9899.3
-1629.94
-1423.45
-1203.31