# Force       
# CofR        : (0.000000e+00 0.000000e+00 0.000000e+00)
#
# Time        	total_x total_y total_z	pressure_x pressure_y pressure_z	viscous_x viscous_y viscous_z
0.012          1.764783e+06 -4.745435e+03 6.884217e+05 1.626275e+06 -4.739326e+03 6.867531e+05 1.385081e+05 -6.108459e+00 1.668537e+03
0.0264         2.810003e+05 -4.169057e+03 -2.006032e+06 1.434063e+05 -4.153178e+03 -2.009988e+06 1.375939e+05 -1.587923e+01 3.956488e+03
0.04368        1.786272e+05 -3.822770e+03 -2.045752e+06 4.143712e+04 -3.795667e+03 -2.052315e+06 1.371901e+05 -2.710324e+01 6.563822e+03
