# Moment      
# CofR        : (0.000000e+00 0.000000e+00 0.000000e+00)
#
# Time        	total_x total_y total_z	pressure_x pressure_y pressure_z	viscous_x viscous_y viscous_z
0.012          -2.451312e+05 2.045240e+09 -2.675880e+05 -2.453505e+05 2.044420e+09 -2.671828e+05 2.192953e+02 8.203953e+05 -4.051982e+02
0.0264         -6.157532e+04 -4.107977e+08 -2.500502e+05 -6.202212e+04 -4.115126e+08 -2.491676e+05 4.467968e+02 7.149923e+05 -8.825352e+02
0.04368        4.184304e+04 -2.087589e+08 -2.195645e+05 4.116565e+04 -2.093389e+08 -2.179398e+05 6.773862e+02 5.799753e+05 -1.624638e+03
