/*--------------------------------*- C++ -*----------------------------------*\
| =========                 |                                                 |
| \\      /  F ield         | OpenFOAM: The Open Source CFD Toolbox           |
|  \\    /   O peration     | Version:  2406                                  |
|   \\  /    A nd           | Website:  www.openfoam.com                      |
|    \\/     M anipulation  |                                                 |
\*---------------------------------------------------------------------------*/
FoamFile
{
    version     2.0;
    format      ascii;
    arch        "LSB;label=32;scalar=64";
    class       volScalarField;
    location    "0.012";
    object      p;
}
// * * * * * * * * * * * * * * * * * * * * * * * * * * * * * * * * * * * * * //

dimensions      [1 -1 -2 0 0 0 0];

internalField   nonuniform List<scalar> 
207657
(
925985
926544
926809
927104
927712
928901
930906
933891
937913
942905
948670
954907
961238
967263
972601
976937
980060
981882
982439
981871
980391
978246
975685
972930
970165
967525
965102
962949
961090
959523
958234
957197
956380
955750
955274
954920
954657
954459
954301
954163
926017
926506
926641
926764
927185
928204
930092
933039
937121
942271
948280
954816
961467
967795
973383
977888
981083
982881
983331
982600
980930
978596
975866
972974
970107
967399
964936
962766
960905
959348
958075
957057
956260
955650
955193
954856
954609
954424
954279
954152
926126
926475
926346
926120
926159
926829
928470
931334
935531
940998
947492
954627
961920
968855
974942
979783
983117
984857
985085
984020
981968
979257
976195
973037
969975
967138
964603
962404
960544
959007
957766
956786
956029
955458
955037
954733
954516
954358
954237
954132
926390
926527
926001
925244
924696
924823
926072
928791
933149
939083
946302
954332
962582
970421
977253
982590
986120
987755
987629
986049
983419
980150
976606
973071
969741
966734
964107
961874
960023
958521
957329
956404
955704
955188
954819
954562
954387
954267
954179
954104
926899
926755
925703
924239
922899
922279
922977
925475
930023
936562
944728
953925
963422
972441
980245
986222
989988
991454
990829
988549
985153
981164
977018
973026
969381
966182
963460
961203
959373
957921
956795
955942
955313
954865
954559
954359
954235
954160
954111
954071
927716
927229
925544
923228
920918
919365
919354
921548
926301
933553
942842
953419
964387
974801
983755
990485
994508
995730
994463
991313
986995
982169
977346
972858
968888
965504
962701
960436
958645
957258
956210
955439
954890
954517
954279
954141
954073
954047
954041
954037
928806
927941
925574
922333
918952
916341
915507
917324
922278
930299
940800
952855
965391
977296
987489
995030
999307
1.00022e+06
998199
994067
988744
983038
977530
972564
968296
964755
961898
959645
957907
956596
955631
954945
954477
954179
954009
953932
953918
953940
953976
954006
929932
928742
925755
921645
917226
913564
911887
913303
918435
927196
938855
952306
966315
979628
991005
999322
1.00383e+06
1.00439e+06
1.0016e+06
996493
990203
983681
977563
972189
967683
964030
961147
958923
957244
956007
955122
954512
954117
953886
953776
953752
953785
953849
953919
953979
930878
929449
925993
921202
915948
911417
909028
910094
915362
924724
937311
951864
967028
981453
993778
1.00272e+06
1.0074e+06
1.00766e+06
1.00422e+06
998298
991233
984076
977501
971836
967168
963448
960559
958367
956741
955564
954741
954192
953852
953670
953604
953620
953688
953781
953878
953959
931426
929869
926159
920993
915269
910241
907439
908297
913641
923343
936452
951615
967416
982458
995315
1.00462e+06
1.00939e+06
1.00947e+06
1.00564e+06
999259
991758
984254
977435
971619
966872
963122
960236
958065
956469
955327
954538
954021
953711
953556
953513
953550
953636
953746
953856
953949
931425
929868
926158
920992
915268
910240
907437
908295
913638
923340
936448
951611
967412
982454
995312
1.00461e+06
1.00939e+06
1.00947e+06
1.00564e+06
999259
991758
984254
977435
971618
966871
963122
960236
958065
956469
955327
954538
954021
953711
953556
953513
953550
953636
953746
953856
953949
930876
929447
925990
921199
915944
911413
909023
910088
915356
924715
937301
951852
967016
981442
993768
1.00272e+06
1.00739e+06
1.00766e+06
1.00421e+06
998297
991231
984075
977500
971835
967168
963448
960559
958367
956741
955564
954741
954192
953852
953670
953604
953620
953688
953781
953878
953959
929928
928737
925751
921641
917221
913558
911880
913294
918424
927183
938840
952288
966296
979611
990991
999311
1.00382e+06
1.00439e+06
1.0016e+06
996490
990201
983680
977562
972189
967682
964030
961146
958922
957244
956007
955122
954512
954117
953886
953776
953752
953785
953849
953919
953979
928801
927935
925568
922327
918945
916333
915498
917313
922265
930284
940782
952834
965369
977277
987473
995017
999297
1.00021e+06
998193
994063
988741
983036
977529
972563
968295
964754
961897
959645
957907
956596
955631
954945
954477
954179
954009
953932
953918
953940
953976
954006
927710
927223
925537
923221
920910
919356
919344
921535
926286
933536
942823
953399
964366
974781
983738
990471
994497
995722
994457
991308
986992
982167
977344
972857
968887
965503
962701
960436
958645
957258
956210
955439
954890
954517
954279
954142
954073
954047
954041
954037
926892
926748
925695
924231
922890
922269
922965
925462
930009
936546
944710
953906
963402
972423
980229
986209
989977
991445
990823
988544
985149
981162
977016
973024
969380
966181
963459
961202
959373
957921
956795
955942
955313
954865
954559
954359
954235
954160
954111
954071
926382
926519
925993
925235
924687
924812
926060
928778
933134
939067
946285
954314
962564
970404
977239
982578
986110
987747
987622
986045
983415
980147
976604
973070
969740
966733
964106
961874
960022
958521
957329
956404
955704
955188
954819
954562
954387
954267
954179
954104
926118
926466
926337
926111
926149
926818
928458
931321
935517
940982
947476
954610
961904
968839
974929
979771
983108
984850
985079
984016
981964
979254
976193
973035
969974
967138
964603
962403
960544
959007
957766
956786
956029
955458
955037
954733
954516
954358
954237
954132
926009
926498
926632
926754
927174
928193
930080
933026
937107
942256
948264
954798
961451
967781
973370
977877
981074
982874
983325
982596
980927
978594
975865
972973
970106
967398
964935
962766
960905
959348
958075
957056
956260
955650
955193
954856
954609
954424
954279
954152
925976
926535
926799
927094
927701
928890
930895
933878
937899
942890
948654
954889
961222
967249
972588
976926
980051
981875
982434
981867
980388
978244
975683
972929
970164
967524
965101
962949
961089
959523
958234
957197
956380
955750
955274
954920
954657
954459
954301
954163
826628
826820
826962
827191
827742
828870
830804
833710
837646
842544
848213
854349
860582
866513
871764
876024
879084
880858
881384
880802
879326
877202
874675
871964
869249
866661
864290
862187
860371
858844
857588
856578
855783
855171
854709
854364
854108
853913
853756
853617
826673
826794
826804
826857
827216
828169
829981
832846
836841
841899
847814
854255
860813
867051
872555
876986
880117
881864
882278
881529
879859
877544
874847
872001
869185
866531
864122
862002
860187
858670
857430
856439
855665
855073
854629
854301
854060
853879
853735
853607
826810
826788
826530
826226
826192
826782
828337
831111
835220
840599
847008
854059
861270
868125
874138
878909
882178
883860
884041
882947
880886
878188
875158
872046
869039
866261
863784
861637
859825
858330
857123
856171
855436
854883
854475
854181
853969
853814
853693
853587
827123
826885
826220
825371
824729
824751
825891
828507
832773
838630
845782
853749
861940
869722
876498
881775
885239
886802
886607
884976
882319
879053
875539
872053
868783
865840
863276
861102
859302
857844
856688
855792
855115
854617
854260
854012
853843
853725
853637
853559
827713
827185
825978
824397
822927
822159
822707
825077
829533
836015
844147
853320
862797
871798
879578
885516
889215
890585
889853
887481
884026
880024
875902
871963
868387
865263
862613
860422
858649
857244
856156
855333
854728
854297
854003
853812
853693
853620
853571
853528
828667
827771
825905
823434
820938
819166
818938
820962
825624
832857
842168
852781
863788
874244
883231
889959
893916
895002
893563
890254
885829
880963
876159
871732
867845
864549
861831
859642
857914
856579
855572
854832
854308
853952
853727
853598
853535
853511
853504
853496
829984
828644
826055
822610
818964
816033
814881
816469
821337
829399
840004
852176
864827
876855
887164
894762
898978
899694
897406
893017
887519
881741
876249
871356
867190
863757
861000
858834
857168
855914
854993
854340
853897
853616
853459
853391
853383
853408
853443
853467
831288
829606
826375
822016
817248
813141
811019
812131
817188
826070
837933
851586
865786
879307
890900
899355
903808
904107
900922
895437
888896
882270
876170
870890
866508
862985
860219
858094
856496
855321
854483
853909
853539
853325
853228
853213
853252
853320
853391
853443
832378
830454
826744
821670
815990
810896
807935
808621
813830
823397
836285
851112
866526
881233
893870
903039
907680
907600
903631
897224
889838
882555
876006
870453
865934
862363
859607
857525
855985
854875
854102
853589
853275
853111
853058
853083
853157
853254
853351
853424
833009
830960
826992
821525
815330
809664
806205
806634
811930
821897
835368
850847
866928
882293
895525
905109
909858
909546
905111
898168
890305
882664
875876
870186
865602
862013
859269
857214
855709
854636
853898
853418
853135
852998
852968
853014
853106
853220
853330
853413
833008
830959
826991
821524
815329
809662
806203
806632
811928
821894
835364
850843
866923
882289
895521
905106
909856
909545
905110
898168
890305
882663
875876
870186
865602
862013
859269
857214
855709
854636
853898
853418
853135
852998
852968
853014
853106
853220
853330
853413
832375
830452
826741
821667
815987
810892
807930
808615
813823
823388
836275
851099
866512
881220
893860
903031
907675
907596
903629
897223
889836
882555
876005
870453
865933
862362
859607
857524
855985
854875
854102
853589
853275
853111
853058
853083
853157
853254
853351
853424
831283
829602
826371
822012
817242
813135
811012
812122
817177
826057
837917
851566
865763
879288
890884
899344
903800
904101
900917
895434
888894
882269
876169
870889
866508
862984
860219
858094
856496
855321
854483
853909
853539
853325
853228
853213
853252
853320
853391
853443
829979
828638
826049
822604
818958
816025
814872
816458
821324
829383
839985
852154
864802
876833
887146
894749
898968
899686
897400
893013
887516
881739
876248
871355
867189
863756
861000
858834
857168
855913
854993
854340
853897
853616
853459
853391
853383
853408
853443
853467
828660
827764
825898
823427
820930
819157
818928
820950
825610
832840
842148
852760
863766
874223
883213
889945
893904
894994
893557
890250
885826
880961
876158
871731
867844
864549
861831
859641
857914
856579
855572
854832
854308
853952
853727
853598
853535
853511
853504
853496
827706
827178
825971
824389
822918
822149
822695
825064
829518
835998
844128
853300
862776
871779
879562
885503
889204
890576
889847
887476
884023
880021
875901
871962
868386
865262
862613
860421
858648
857244
856156
855333
854728
854297
854003
853812
853693
853620
853571
853528
827116
826877
826212
825362
824719
824740
825879
828493
832758
838614
845764
853731
861922
869705
876483
881763
885228
886794
886601
884971
882316
879050
875537
872051
868782
865839
863276
861102
859302
857844
856688
855792
855115
854617
854260
854012
853843
853725
853637
853559
826802
826780
826521
826217
826181
826771
828325
831098
835205
840583
846991
854041
861253
868110
874125
878897
882169
883852
884035
882942
880882
878185
875156
872045
869039
866261
863783
861637
859825
858330
857123
856171
855436
854883
854475
854181
853969
853814
853693
853587
826665
826785
826795
826847
827205
828157
829969
832833
836826
841885
847798
854236
860797
867037
872543
876975
880108
881857
882273
881525
879857
877542
874846
872000
869184
866530
864121
862002
860187
858669
857430
856439
855665
855073
854629
854301
854060
853879
853735
853607
826619
826811
826953
827181
827731
828858
830793
833697
837632
842530
848196
854331
860566
866499
871752
876013
879075
880851
881378
880798
879323
877200
874673
871963
869248
866661
864290
862186
860371
858844
857588
856578
855783
855171
854709
854364
854108
853913
853756
853617
727724
727755
727777
727908
728358
729369
731167
733916
737679
742390
747859
753790
759819
765554
770627
774731
777663
779342
779808
779203
777740
775661
773206
770587
767975
765494
763227
761221
759494
758043
756853
755897
755146
754569
754133
753808
753564
753376
753221
753079
727793
727751
727637
727586
727836
728662
730329
733033
736854
741722
747447
753690
760051
766101
771433
775710
778712
780358
780704
779924
778261
775987
773363
770609
767900
765356
763054
761035
759310
757871
756697
755761
755031
754473
754055
753747
753518
753343
753200
753069
727983
727794
727404
726981
726817
727260
728649
731248
735178
740379
746609
753480
760514
767201
773056
777681
780818
782385
782478
781332
779262
776598
773638
770624
767729
765069
762706
760666
758948
757534
756396
755499
754808
754289
753907
753630
753430
753281
753160
753050
728386
727974
727162
726168
725359
725188
726120
728533
732618
738314
745319
753145
761199
768851
775502
780652
783979
785402
785080
783355
780656
777406
773959
770576
767430
764618
762181
760123
758424
757051
755966
755127
754494
754030
753698
753468
753309
753196
753106
753023
729122
728406
727028
725260
723556
722511
722773
724892
729163
735524
743572
752674
762085
771026
778744
784594
788155
789338
788402
785859
782305
778288
774228
770403
766969
763995
761490
759427
757765
756453
755440
754675
754115
753718
753448
753274
753165
753096
753045
752993
730333
729196
727118
724396
721560
719373
718724
720416
724895
732082
741419
752074
763124
773631
782666
789382
793204
794023
792250
788638
784020
779094
774345
770051
766333
763216
760667
758625
757021
755787
754859
754180
753701
753380
753178
753066
753013
752994
752986
752966
732189
730378
727500
723718
719585
716030
714244
715375
720076
728223
739023
751391
764227
776462
786989
794705
798801
799125
796295
791404
785579
779684
774246
769516
765560
762343
759784
757789
756261
755117
754281
753692
753295
753049
752916
752864
752866
752899
752936
752948
733828
731652
728104
723333
717910
712922
709891
710380
715302
724450
736718
750728
765244
779136
791156
799911
804275
804018
800018
793784
786764
779971
773940
768866
764745
761482
758949
757018
755574
754519
753771
753264
752942
752763
752689
752691
752742
752818
752892
752929
735196
732781
728747
723206
716723
710493
706335
706226
711346
721384
734886
750204
766026
781238
794514
804186
808783
807973
802906
795502
787503
780018
773563
768265
764054
760784
758290
756422
755051
754069
753390
752946
752681
752552
752523
752564
752650
752757
752857
752913
735993
733458
729170
723209
716123
709157
704308
703824
709069
719651
733872
749915
766446
782391
796399
806631
811372
810212
804487
796389
787833
779974
773302
767898
763654
760390
757926
756097
754767
753826
753186
752777
752543
752440
752435
752497
752601
752724
752837
752903
735992
733457
729169
723208
716121
709156
704306
703822
709067
719648
733868
749909
766440
782386
796396
806629
811371
810211
804486
796389
787832
779974
773301
767898
763654
760390
757926
756097
754767
753826
753186
752777
752543
752440
752435
752497
752601
752724
752837
752903
735194
732778
728744
723203
716720
710489
706331
706220
711338
721375
734873
750188
766008
781222
794502
804179
808778
807970
802904
795501
787502
780017
773562
768264
764054
760784
758290
756422
755051
754069
753390
752946
752681
752552
752523
752564
752650
752757
752857
752913
733824
731648
728100
723328
717905
712915
709884
710371
715290
724436
736700
750705
765212
779112
791138
799899
804267
804012
800015
793781
786762
779969
773939
768866
764745
761482
758949
757018
755574
754519
753771
753264
752942
752763
752689
752691
752742
752818
752892
752929
732184
730372
727495
723712
719578
716022
714235
715364
720063
728206
739002
751365
764193
776436
786969
794691
798791
799118
796290
791401
785576
779682
774245
769515
765559
762342
759784
757789
756261
755117
754281
753692
753295
753049
752916
752864
752866
752899
752936
752948
730327
729190
727112
724389
721552
719364
718713
720403
724880
732064
741398
752050
763098
773608
782647
789367
793193
794015
792244
788634
784017
779092
774344
770050
766333
763216
760666
758625
757021
755787
754859
754180
753701
753380
753179
753066
753013
752994
752986
752966
729115
728399
727020
725252
723547
722501
722761
724878
729148
735506
743552
752652
762063
771005
778726
784580
788144
789329
788396
785854
782302
778286
774226
770402
766968
763994
761489
759427
757765
756453
755439
754675
754115
753718
753448
753274
753165
753096
753045
752993
728378
727966
727154
726159
725349
725177
726108
728520
732603
738297
745301
753126
761180
768834
775487
780639
783969
785394
785074
783350
780653
777404
773957
770575
767430
764618
762180
760122
758424
757051
755966
755127
754494
754030
753698
753468
753309
753196
753106
753023
727975
727786
727395
726972
726807
727248
728637
731235
735164
740364
746591
753462
760497
767185
773042
777669
780808
782378
782473
781328
779259
776596
773637
770623
767729
765068
762706
760666
758948
757534
756395
755499
754808
754289
753907
753630
753430
753281
753160
753050
727785
727743
727628
727576
727825
728650
730317
733020
736836
741712
747430
753666
760035
766088
771421
775699
778704
780351
780699
779920
778258
775986
773362
770608
767899
765355
763054
761035
759309
757870
756697
755761
755031
754473
754055
753747
753518
753343
753200
753069
727716
727746
727768
727898
728346
729357
731156
733905
737666
742376
747842
753767
759803
765541
770615
774721
777655
779335
779803
779200
777737
775659
773205
770586
767974
765493
763226
761220
759493
758043
756852
755897
755146
754569
754133
753808
753564
753376
753221
753079
629354
629300
629224
629246
629568
630420
632025
634541
638045
642471
647626
653232
658938
664365
669157
673019
675758
677296
677679
677050
675617
673617
671280
668805
666351
664033
661923
660063
658468
657131
656037
655161
654475
653948
653551
653253
653028
652850
652696
652549
629454
629327
629110
628945
629055
629711
631171
633642
637204
641794
647202
653125
659171
664920
669976
674013
676819
678317
678570
677755
676116
673919
671414
668808
666262
663886
661747
659878
658286
656963
655887
655031
654365
653857
653477
653196
652985
652819
652676
652540
629711
629434
628933
628380
628054
628299
629460
631806
635467
640387
646325
652899
659638
666043
671638
676031
678967
680369
680344
679139
677074
674478
671639
668780
666061
663580
661389
659507
657929
656634
655595
654778
654152
653682
653336
653086
652903
652761
652640
652521
630228
629723
628787
627633
626617
626190
626836
628959
632768
638206
644959
652533
660337
667752
674183
679123
682243
683465
682970
681133
678401
675202
671875
668661
665708
663094
660846
658958
657408
656160
655177
654420
653851
653435
653139
652933
652789
652682
652590
652497
631141
630323
628801
626826
624831
623419
623284
625044
629036
635193
643072
652009
661256
670046
677627
683322
686672
687586
686373
683611
679950
675950
672010
668373
665162
662415
660123
658250
656749
655570
654662
653981
653485
653135
652900
652749
652654
652591
652536
652470
632656
631360
629116
626118
622852
620100
618854
620065
624273
631372
640695
651330
662351
672855
681907
688583
692200
692630
690383
686364
681511
676549
671924
667852
664401
661554
659251
657424
655998
654907
654091
653498
653084
652809
652641
652550
652511
652499
652489
652454
635681
632901
629817
625673
620901
616460
613737
614183
618649
626930
637982
650546
663535
675983
686795
694693
698619
698350
694709
689100
682848
676847
671548
667095
663468
660575
658307
656555
655226
654236
653518
653017
652686
652486
652385
652355
652373
652417
652464
652469
637714
634604
630859
625652
619358
613072
608630
608148
612909
622528
635387
649801
664609
678925
691572
700844
705109
703970
698691
691339
683681
676735
670891
666176
662467
659595
657401
655748
654522
653635
653012
652596
652341
652208
652166
652189
652256
652347
652437
652465
639474
636144
631940
625920
618360
610413
604319
602916
607990
618906
633356
649237
665414
681213
695476
706072
710680
708663
701795
692866
684040
676386
670184
665333
661614
658796
656684
655122
653986
653182
652634
652284
652086
652003
652005
652068
652170
652293
652409
652453
640509
637081
632650
626198
617915
608955
601802
599792
605089
616853
632264
648943
665828
682440
697680
709140
713985
711384
703491
693598
684107
676082
669715
664819
661116
658343
656286
654779
653695
652938
652432
652118
651951
651895
651920
652003
652124
652263
652392
652445
640509
637081
632649
626196
617914
608954
601800
599790
605086
616849
632259
648936
665819
682432
697677
709138
713985
711383
703490
693598
684107
676082
669715
664819
661116
658343
656286
654779
653695
652938
652432
652118
651951
651895
651920
652003
652124
652263
652392
652445
639472
636141
631937
625917
618357
610408
604314
602909
607982
618896
633341
649217
665391
681191
695463
706065
710677
708660
701794
692865
684040
676385
670183
665333
661613
658796
656684
655122
653986
653182
652634
652284
652086
652003
652005
652068
652170
652293
652409
652453
637710
634599
630855
625647
619353
613066
608623
608138
612897
622512
635366
649774
664584
678896
691550
700831
705102
703966
698688
691337
683679
676734
670890
666176
662466
659595
657401
655748
654522
653635
653012
652597
652341
652208
652166
652189
652257
652347
652437
652465
635675
632896
629812
625667
620895
616452
613727
614172
618635
626912
637959
650517
663510
675954
686771
694677
698609
698344
694705
689097
682845
676846
671547
667094
663467
660575
658307
656555
655225
654236
653518
653017
652686
652486
652385
652355
652373
652417
652464
652469
632650
631354
629110
626111
622844
620091
618844
620053
624258
631352
640670
651302
662322
672827
681885
688567
692189
692622
690377
686360
681509
676547
671923
667852
664401
661553
659251
657423
655998
654907
654091
653498
653084
652809
652641
652550
652511
652499
652489
652454
631134
630316
628794
626818
624822
623409
623273
625030
629021
635174
643051
651985
661231
670024
677608
683307
686661
687578
686367
683607
679947
675948
672008
668372
665161
662414
660122
658250
656749
655570
654662
653981
653485
653135
652900
652749
652654
652591
652536
652470
630221
629716
628778
627624
626607
626179
626824
628946
632753
638189
644940
652513
660318
667734
674167
679110
682233
683458
682965
681129
678399
675200
671874
668660
665708
663094
660845
658958
657407
656160
655177
654420
653851
653435
653139
652933
652789
652682
652590
652497
629704
629426
628924
628370
628043
628287
629448
631793
635453
640371
646307
652882
659622
666028
671625
676021
678958
680362
680339
679135
677072
674477
671638
668780
666060
663579
661389
659507
657928
656634
655594
654778
654152
653682
653336
653086
652903
652761
652640
652521
629446
629319
629101
628934
629044
629698
631161
633631
637196
641775
647185
653117
659158
664907
669964
674003
676810
678310
678566
677753
676115
673918
671413
668807
666262
663886
661746
659877
658286
656963
655887
655031
654365
653857
653477
653196
652985
652819
652676
652540
629346
629292
629214
629236
629556
630406
632014
634533
638033
642457
647612
653226
658926
664353
669146
673010
675750
677290
677675
677047
675615
673616
671279
668805
666351
664032
661923
660063
658467
657131
656037
655161
654475
653948
653551
653253
653028
652850
652696
652549
531538
531437
531285
531205
531388
532054
533421
535659
538814
542824
547538
552683
557927
562914
567309
570835
573310
574666
574952
574308
572936
571061
568897
566627
564393
562296
560398
558733
557310
556122
555154
554382
553778
553316
552968
552707
552505
552340
552187
552030
531672
531497
531203
530931
530895
531355
532583
534756
537949
542132
547105
552571
558157
563467
568127
571827
574365
575673
575820
574984
573402
571331
569003
566609
564291
562143
560221
558551
557135
555962
555013
554260
553676
553233
552901
552655
552467
552312
552169
552021
531999
531675
531093
530423
529927
529957
530849
532874
536169
540693
546203
552330
558620
564597
569805
573864
576524
577717
577561
576312
574293
571821
569168
566535
564059
561821
559860
558186
556789
555648
554737
554023
553478
553070
552772
552554
552392
552260
552136
552004
532631
532081
531059
529767
528547
527845
528159
529918
533356
538416
544775
551936
559323
566344
572420
577044
579880
580853
580171
578235
575516
572431
569302
566336
563653
561307
559308
557642
556282
555194
554341
553686
553197
552842
552590
552414
552289
552190
552093
551981
533694
532852
531250
529101
526820
525011
524416
525732
529350
535190
542760
551362
560264
568739
576049
581488
584549
585134
583608
580634
576912
573004
569275
565922
563020
560577
558563
556933
555636
554624
553849
553271
552854
552562
552369
552245
552167
552109
552048
551961
535220
534089
531829
528616
524920
521538
519582
520194
524041
530972
540162
550605
561401
571733
580692
587260
590600
590544
587737
583281
578234
573326
568939
565206
562125
559634
557651
556094
554891
553977
553298
552810
552473
552254
552125
552060
552037
552032
552020
551965
559261
560175
557676
553938
549287
544535
541009
540301
543567
550839
561092
572958
585368
597468
608307
616644
621203
621455
618070
612521
606283
600345
595172
590886
587435
584705
582575
580932
579683
578751
578072
577594
577275
577079
576977
576942
576954
576992
577040
577088
561895
562009
559171
554468
548244
541355
535557
533307
536531
545215
557555
571516
585872
599990
613022
623287
628682
628185
622893
615195
607229
600169
594389
589841
586332
583651
581620
580094
578963
578141
577563
577174
576933
576805
576763
576783
576847
576938
577046
577168
564152
564068
560853
555397
547822
538882
530688
526727
529990
540348
554845
570612
586439
602153
617206
629526
635870
634453
626973
617033
607468
599516
593348
588701
585238
582665
580759
579358
578342
577623
577133
576821
576645
576574
576581
576645
576748
576877
577020
577166
565662
565517
562123
556255
547837
537463
527431
522080
525411
537168
553270
570162
586757
603368
619802
633759
640933
638770
629542
617946
607322
598862
592527
587885
584497
582021
580212
578900
577961
577308
576874
576609
576474
576437
576473
576563
576689
576839
577000
577157
565997
565844
562422
556477
547885
537190
526718
521018
524365
536471
552952
570074
586797
603584
620339
634694
642088
639743
630088
618105
607250
598691
592332
587700
584334
581882
580096
578803
577881
577242
576821
576566
576439
576409
576451
576546
576677
576831
576995
577154
565046
564926
561603
555903
547831
538046
528773
523991
527278
538441
553871
570300
586586
602834
618717
632006
638844
637003
628506
617591
607396
599139
592868
588222
584802
582285
580437
579088
578117
577437
576980
576696
576544
576493
576517
576596
576713
576855
577009
577161
563129
563105
560053
554942
547995
540021
532969
529821
533042
542571
556030
570952
586108
601096
615216
626570
632471
631516
625099
616225
607402
599854
593853
589244
585753
583126
581160
579699
578630
577863
577332
576984
576778
576681
576665
576709
576794
576906
577035
577171
560634
560957
558385
554161
548714
542888
538230
536745
539957
547886
559151
572072
585483
598626
610592
619911
624914
624838
620549
613952
606848
600332
594836
590403
586910
584196
582109
580521
579329
578451
577821
577387
577107
576945
576873
576866
576905
576971
577053
577154
535214
534083
531823
528609
524912
521529
519572
520181
524025
530948
540134
550570
561362
571696
580668
587242
590588
590537
587732
583277
578232
573325
568938
565205
562125
559634
557651
556094
554890
553976
553298
552810
552473
552254
552125
552060
552037
552032
552020
551965
533688
532846
531242
529093
526811
525001
524405
525719
529334
535170
542736
551335
560235
568713
576029
581473
584538
585126
583603
580630
576909
573002
569274
565921
563019
560576
558563
556933
555636
554623
553849
553271
552854
552562
552369
552245
552167
552109
552048
551961
532625
532074
531051
529757
528538
527835
528147
529905
533341
538399
544755
551915
559303
566325
572404
577032
579871
580846
580166
578232
575514
572430
569301
566336
563653
561306
559307
557642
556282
555194
554341
553686
553197
552842
552590
552414
552289
552190
552093
551981
531992
531667
531084
530412
529918
529947
530837
532860
536156
540676
546181
552313
558604
564582
569792
573853
576516
577711
577557
576309
574291
571820
569167
566534
564059
561821
559860
558186
556789
555648
554736
554023
553478
553070
552772
552554
552392
552260
552136
552004
531664
531489
531194
530921
530883
531338
532577
534745
537939
542117
547083
552558
558144
563455
568116
571817
574357
575667
575817
574982
573402
571330
569002
566608
564290
562142
560221
558550
557135
555962
555013
554260
553676
553232
552901
552655
552467
552312
552169
552021
531531
531429
531276
531195
531375
532035
533413
535656
538804
542812
547523
552673
557916
562903
567299
570826
573302
574661
574949
574307
572936
571061
568897
566627
564393
562296
560398
558732
557309
556122
555154
554382
553778
553316
552968
552707
552505
552340
552187
552030
434269
434147
433947
433787
433840
434309
435422
437303
440000
443489
447622
452150
456771
461164
465027
468109
470249
471387
471573
470937
469672
467983
466061
464066
462119
460305
458674
457250
456040
455035
454219
453571
453067
452682
452393
452174
452002
451852
451699
451524
434430
434236
433900
433550
433382
433661
434615
436412
439153
442810
447194
452034
456987
461694
465814
469065
471261
472345
472388
471561
470090
468211
466136
464028
462008
460152
458503
457079
455878
454889
454092
453462
452976
452608
452334
452129
451969
451829
451684
451516
434816
434478
433860
433116
432494
432329
432915
434561
437391
441390
446303
451791
457433
462793
467452
471051
473357
474311
474035
472788
470883
468618
466237
463913
461756
459828
458153
456734
455557
454601
453841
453250
452800
452466
452221
452042
451905
451784
451656
451501
435544
434990
433942
432570
431206
430266
430245
431594
434562
439096
444865
451385
458118
464520
470053
474223
476690
477386
476539
474573