/*--------------------------------*- C++ -*----------------------------------*\
| =========                 |                                                 |
| \\      /  F ield         | OpenFOAM: The Open Source CFD Toolbox           |
|  \\    /   O peration     | Version:  2406                                  |
|   \\  /    A nd           | Website:  www.openfoam.com                      |
|    \\/     M anipulation  |                                                 |
\*---------------------------------------------------------------------------*/
FoamFile
{
    version     2.0;
    format      ascii;
    arch        "LSB;label=32;scalar=64";
    class       volScalarField;
    location    "0.012";
    object      p_rgh;
}
// * * * * * * * * * * * * * * * * * * * * * * * * * * * * * * * * * * * * * //

dimensions      [1 -1 -2 0 0 0 0];

internalField   nonuniform List<scalar> 
207657
(
-20102.6
-28704.7
-28440.1
-28145
-27536.8
-26347.4
-24342.3
-21357.8
-17335.6
-12344
-6578.47
-342.2
5989.54
12014.5
17351.9
21687.8
24811
26633.5
27190.6
26622.7
25142.4
22997.5
20436.3
17681.7
14916.1
12275.8
9852.76
7700.19
5840.77
4274.39
2985.3
1947.89
1131.07
501.492
25.6438
-328.689
-591.499
-789.917
-947.805
-1085.68
-20070.5
-28742.2
-28607.9
-28484.9
-28064.1
-27044.3
-25157.2
-22210.1
-18127.8
-12977.6
-6968.91
-433.211
6218.74
12546.7
18134.2
22639.1
25834.5
27632.2
28082.5
27351.4
25681.5
23347.5
20617.4
17725.6
14858.3
12149.8
9687.11
7517.16
5656.43
4099.44
2826.16
1807.81
1011.15
401.416
-55.7046
-392.833
-640.099
-824.587
-969.967
-1096.43
-19961.7
-28773.7
-28902.5
-29128.5
-29089.8
-28419.3
-26778.5
-23914.9
-19717.5
-14251.1
-7756.56
-621.62
6671.42
13605.9
19693.3
24534.1
27868.7
29608.6
29836
28771.4
26718.9
24007.9
20945.8
17787.9
14726.1
11889.7
9354.64
7155.07
5295.07
3758.66
2517.61
1537.18
780.09
209.02
-211.793
-515.672
-732.967
-890.672
-1012.12
-1116.86
-19697.8
-28721.5
-29247.8
-30004.3
-30552.3
-30425.6
-29176.7
-26457.5
-22100.1
-16166.1
-8946.69
-916.981
7332.84
15172.3
22004.7
27341.5
30871.6
32506.3
32380
30800.6
28169.9
24901
21357.6
17822.7
14492.3
11484.8
8857.75
6625.5
4773.89
3271.96
2080.11
1155.54
455.608
-60.2501
-429.589
-686.541
-861.668
-981.842
-1070
-1144.89
-19188.5
-28493.5
-29546.2
-31009.6
-32349.4
-32969.3
-32272
-29773.7
-25225.4
-18686.7
-10520.8
-1323.69
8173.1
17192.5
24995.9
30973.3
34739.5
36205.1
35580.3
33300.3
29903.8
25915.6
21769.5
17777
14131.9
10933
8211.16
5954.02
4124.27
2672.66
1546.21
692.95
64.3581
-383.563
-690.109
-890.092
-1014.18
-1089.12
-1137.57
-1177.55
-18371.5
-28019.2
-29704.5
-32020.6
-34330.3
-35883.7
-35894.5
-33701.2
-28948
-21695.9
-12407.1
-1829.58
9138.29
19552.1
28505.8
35236.6
39259.5
40481.2
39214.3
36064.1
31746.2
26920.7
22097.2
17609.7
13639.3
10254.8
7452.31
5187.22
3396
2009.67
961.379
189.976
-358.633
-731.509
-969.323
-1107.25
-1175.86
-1201.75
-1207.63
-1211.26
-17281.6
-27307.5
-29674.6
-32915.4
-36297.1
-38907.4
-39742
-37924.6
-32970.6
-24949.4
-14449.1
-2394
10142.2
22047.6
32240.6
39781.1
44058
44968.2
42950.2
38818.1
33495.3
27789.5
22281.3
17315.1
13047
9506.25
6649.05
4396.44
2658.41
1346.98
382.515
-304.182
-771.852
-1069.88
-1239.78
-1316.69
-1330.86
-1308.71
-1273.22
-1242.55
-16155.9
-26506.9
-29493.3
-33603.3
-38022.8
-41685
-43361.9
-41946.1
-36814.1
-28052.8
-16393.9
-2943.16
11066.1
24379.7
35756.2
44073.6
48576.7
49144.9
46354
41244.5
34954.7
28432.4
22314.1
16940.7
12434.2
8781.21
5897.97
3673.75
1995.14
758.147
-127.214
-736.324
-1131.28
-1362.96
-1473.2
-1496.88
-1463.81
-1400.21
-1329.32
-1269.39
-15209.1
-25799.3
-29256
-34046.4
-39301.2
-43831.9
-46220.6
-45154.7
-39886.3
-30525
-17937.4
-3384.99
11779.5
26204.7
38529
47474.5
52150.9
52415.5
48967.4
43049.7
35984
28827.5
22252.3
16586.8
11919.2
8199.14
5310.66
3118.49
1491.94
315.608
-507.558
-1056.99
-1396.85
-1578.78
-1644.64
-1628.99
-1561.24
-1467.43
-1370.78
-1289.28
-14662.1
-25379.2
-29090.1
-34255.6
-39979.6
-45007.3
-47810.2
-46951.5
-41608.1
-31905.8
-18796.7
-3633.73
12167.7
27209.3
40066.1
49368.2
54140.3
54223.2
50391.4
44010.6
36509.6
29005.7
22186.6
16369.9
11622.8
7873.18
4987.11
2815.98
1219.99
77.8919
-710.917
-1227.83
-1537.94
-1693.19
-1735.38
-1698.85
-1612.79
-1503.08
-1392.88
-1299.88
-14662.9
-25380
-29091
-34256.6
-39980.7
-45008.6
-47811.8
-46953.4
-41610.5
-31908.8
-18800.3
-3637.8
12163.4
27205.4
40063
49365.9
54138.6
54222
50390.5
44010
36509.2
29005.4
22186.3
16369.7
11622.7
7873.11
4987.06
2815.94
1219.97
77.8782
-710.924
-1227.84
-1537.94
-1693.19
-1735.38
-1698.85
-1612.79
-1503.08
-1392.87
-1299.88
-15211.6
-25801.8
-29258.7
-34049.4
-39304.5
-43835.8
-46225.3
-45160.3
-39893.2
-30533.4
-17947.5
-3396.7
11767.1
26193.3
38519.6
47467.4
52145.8
52411.8
48964.8
43047.8
35982.6
28826.6
22251.6
16586.3
11918.9
8198.92
5310.51
3118.39
1491.88
315.569
-507.577
-1057
-1396.85
-1578.78
-1644.64
-1628.98
-1561.23
-1467.42
-1370.77
-1289.27
-16159.9
-26511
-29497.6
-33608
-38028.1
-41691.2
-43369.1
-41954.8
-36824.6
-28065.5
-16409.1
-2960.72
11047.2
24362.6
35742.1
44062.6
48568.6
49139
46349.7
41241.5
34952.6
28430.8
22313
16939.9
12433.7
8780.84
5897.72
3673.59
1995.04
758.085
-127.246
-736.335
-1131.28
-1362.95
-1473.19
-1496.87
-1463.8
-1400.2
-1329.31
-1269.39
-17286.9
-27313
-29680.4
-32921.6
-36304
-38915.3
-39751.2
-37935.4
-32983.5
-24964.8
-14467.1
-2414.31
10120.7
22027.9
32224
39767.9
44047.9
44960.7
42944.7
38814.1
33492.4
27787.5
22279.8
17314
13046.2
9505.75
6648.7
4396.21
2658.26
1346.89
382.463
-304.205
-771.856
-1069.87
-1239.76
-1316.68
-1330.85
-1308.7
-1273.22
-1242.55
-18377.8
-28025.7
-29711.3
-32028
-34338.5
-35892.9
-35905.1
-33713.4
-28962.3
-21712.5
-12425.9
-1850
9117.36
19532.5
28488.9
35222.8
39248.6
40472.9
39208.1
36059.5
31742.8
26918.3
22095.5
17608.5
13638.5
10254.2
7451.88
5186.92
3395.8
2009.55
961.299
189.932
-358.652
-731.512
-969.317
-1107.24
-1175.85
-1201.74
-1207.62
-1211.25
-19195.7
-28500.8
-29553.9
-31017.9
-32358.5
-32979.4
-32283.4
-29786.7
-25240.1
-18703.3
-10539.1
-1343.04
8153.7
17174.3
24979.9
30959.8
34728.6
36196.6
35573.8
33295.4
29900.2
25913.1
21767.7
17775.7
14131
10932.3
8210.67
5953.68
4124.03
2672.5
1546.11
692.884
64.3214
-383.58
-690.114
-890.09
-1014.18
-1089.11
-1137.56
-1177.55
-19705.5
-28729.5
-29256.2
-30013.4
-30562.1
-30436.3
-29188.5
-26470.7
-22114.7
-16182.2
-8964.06
-935.009
7315.09
15155.7
21989.9
27328.9
30861.2
32498.1
32373.6
30795.8
28166.4
24898.4
21355.7
17821.4
14491.4
11484.1
8857.24
6625.13
4773.62
3271.77
2079.98
1155.45
455.555
-60.2809
-429.605
-686.547
-861.669
-981.84
-1070
-1144.89
-19969.9
-28782.1
-28911.4
-29138
-29100
-28430.4
-26790.6
-23928.1
-19732
-14266.5
-7773.17
-638.776
6654.87
13590.6
19679.8
24522.4
27859
29600.8
29830
28766.9
26715.5
24005.5
20944
17786.6
14725.1
11889
9354.12
7154.68
5294.79
3758.46
2517.46
1537.08
780.023
208.978
-211.818
-515.686
-732.974
-890.674
-1012.12
-1116.86
-20078.9
-28750.9
-28617
-28494.7
-28074.6
-27055.6
-25169.2
-22223.1
-18142.1
-12992.4
-6985.12
-450.386
6202.68
12532.2
18121.4
22628.1
25825.4
27624.8
28076.7
27347.1
25678.3
23345.2
20615.8
17724.4
14857.4
12149.2
9686.59
7516.77
5656.14
4099.22
2826
1807.7
1011.07
401.364
-55.7377
-392.853
-640.11
-824.592
-969.97
-1096.43
-20111.2
-28713.5
-28449.4
-28154.9
-27547.5
-26358.7
-24354.1
-21370.4
-17349.3
-12358.7
-6594.58
-359.31
5973.74
12000.4
17339.6
21677.2
24802.1
26626.3
27185
26618.5
25139.3
22995.3
20434.7
17680.5
14915.2
12275.1
9852.24
7699.8
5840.47
4274.17
2985.14
1947.77
1130.99
501.436
25.6067
-328.712
-591.513
-789.925
-947.808
-1085.68
-19871.5
-27876.5
-27734.4
-27505.2
-26954.3
-25826.7
-23891.9
-20986.5
-17050.7
-12151.8
-6483.58
-346.913
5886.18
11816.9
17067.7
21327.5
24387.5
26161.8
26687.4
26105.8
24629.7
22505.4
19978.4
17268
14552.7
11965.2
9594.02
7490.31
5675.15
4147.59
2891.61
1881.7
1087.18
475.191
12.7576
-331.838
-588.184
-783.073
-939.977
-1078.75
-19826.4
-27902
-27892.5
-27839.1
-27480.3
-26527.7
-24715.7
-21850.5
-17855.5
-12797.4
-6881.98
-441.323
6116.73
12354.8
17859.1
22289.6
25421.1
27167.6
27582
26832.7
25163.2
22847.6
20151.2
17304.4
14488.8
11834.8
9425.74
7306.1
5490.73
3973.31
2733.59
1742.98
968.675
376.473
-67.3565
-394.912
-635.903
-817.074
-961.712
-1089.35
-19689.3
-27907.6
-28166.3
-28470.1
-28504.6
-27913.8
-26359.3
-23585.1
-19476.6
-14097.3
-7688.16
-637.427
6573.36
13429
19442
24212.8
27482.1
29163.8
29344.7
28250.5
26189.3
23491.4
20461.5
17350
14343.2
11565.1
9087.33
6941.13
5128.8
3633.55
2427.02
1474.82
740.219
186.6
-221.137
-515.733
-727.085
-881.85
-1003
-1109.46
-19376.3
-27810.7
-28476
-29325.3
-29967.6
-29945.1
-28805.2
-26189.7
-21923.1
-16066.2
-8914.09
-946.765
7243.63
15026.1
21802.2
27079.2
30542.5
32105.5
31911.2
30279.8
27622.7
24356.6
20842.4
17356.5
14086.5
11143.7
8579.98
6406.08
4605.85
3147.59
1991.8
1096.25
419.09
-79.3731
-435.88
-683.879
-853.436
-971.097
-1059.53
-1136.96
-18786.2
-27511
-28718
-30298.9
-31769.2
-32537
-31989.3
-29619.6
-25163.4
-18681.3
-10549.3
-1376.15
8100.46
17101.4
24882.1
30820.1
34518.6
35888.4
35156.9
32784.4
29330.2
25327.5
21206
17266.7
13690.8
10566.4
7917.01
5725.48
3952.41
2548.03
1459.81
636.703
31.3351
-399.162
-693.067
-884.36
-1003.13
-1075.81
-1125.04
-1168.71
-17832.7
-26925.3
-28791.1
-31262
-33758.4
-35530.4
-35758.1
-33733.8
-29072
-21839.4
-12528.4
-1914.97
9092.03
19547.3
28534.5
35263.2
39219.3
40305.8
38867.1
35557.8
31132.8
26267.1
21463
17036.2
13148.5
9852.86
7135.2
4945.4
3217.77
1883.22
875.89
136.115
-388.633
-743.941
-969.19
-1098.51
-1161.73
-1185.16
-1191.88
-1200.66
-16515.3
-26052.3
-28641.7
-32086.4
-35731.8
-38663.1
-39815.4
-38226.8
-33358.9
-25297.1
-14692
-2520.59
10130.9
22158.4
32467.6
40066.2
44281.6
44997.6
42709.6
38321.1
32823
27045
21552.7
16660.1
12493.6
9060.51
6303.75
4138.11
2471.73
1217.28
296.869
-356.54
-799.602
-1079.83
-1237.13
-1305.34
-1313.73
-1288.33
-1252.98
-1228.9
-15211.9
-25090.1
-28321.1
-32679.9
-37448.7
-41555.4
-43676.9
-42565.3
-37508.3
-28626.2
-16763.1
-3110.55
11089.3
24611.1
36203.5
44659
49111.6
49410.8
46225.3
40741.1
34199.4
27574.2
21474.2
16193.5
11812.2
8288.49
5522.88
3398.05
1799.46
624.716
-213.467
-787.612
-1157.19
-1370.79
-1468.35
-1483.22
-1444.03
-1376.6
-1305.52
-1253.67
-14121.8
-24241.6
-27952.6
-33026.1
-38706.3
-43800.4
-46761.5
-46075.6
-40866.5
-31299
-18410.8
-3583.85
11829.7
26536.3
39173.5
48342.4
52983.8
52903.6
48935.1
42528
35141.4
27859.2
21309.3
15756.8
11237.3
7666.29
4910.51
2828.31
1288.75
179.015
-594.441
-1107.56
-1421.4
-1585.01
-1638.15
-1613.63
-1539.62
-1441.77
-1345.02
-1272.58
-13490.7
-23736.3
-27704.5
-33171.1
-39366.1
-45032.5
-48491.3
-48062.6
-42765.9
-32799.2
-19327.9
-3849.07
12231.6
27596.7
40828.5
50412.3
55161.6
54849.9
50415.1
43472.1
35608.9
27967.5
21180.1
15490.2
10905.5
7316.93
4572.5
2517.51
1012.52
-60.5147
-798.184
-1278.02
-1561.75
-1698.55
-1727.99
-1682.58
-1590.24
-1476.47
-1366.29
-1282.8
-13491.4
-23737.1
-27705.4
-33172.1
-39367.3
-45033.8
-48493
-48064.6
-42768.3
-32802.3
-19331.8
-3853.61
12226.8
27592.3
40825.1
50410
55160
54848.7
50414.2
43471.5
35608.5
27967.2
21179.9
15490
10905.4
7316.86
4572.46
2517.48
1012.51
-60.5253
-798.189
-1278.02
-1561.74
-1698.55
-1727.98
-1682.58
-1590.23
-1476.47
-1366.29
-1282.8
-14124.2
-24244.1
-27955.3
-33029.1
-38709.7
-43804.3
-46766.2
-46081.3
-40873.5
-31307.8
-18421.7
-3596.92
11815.5
26523.5
39163.4
48335.1
52978.7
52900.1
48932.6
42526.3
35140.2
27858.3
21308.7
15756.4
11237
7666.08
4910.38
2828.22
1288.7
178.984
-594.454
-1107.56
-1421.39
-1585
-1638.13
-1613.62
-1539.61
-1441.76
-1345.01
-1272.57
-15216
-25094.2
-28325.4
-32684.7
-37454
-41561.5
-43684.1
-42574
-37519
-28639.5
-16779.4
-3130.14
11066.9
24591.8
36188.1
44647.6
49103.4
49405
46221.2
40738.1
34197.3
27572.7
21473.1
16192.7
11811.7
8288.16
5522.66
3397.9
1799.37
624.667
-213.488
-787.614
-1157.17
-1370.77
-1468.33
-1483.2
-1444.01
-1376.59
-1305.52
-1253.67
-16520.6
-26057.7
-28647.4
-32092.6
-35738.6
-38671
-39824.6
-38237.7
-33372.1
-25313
-14711.1
-2542.8
10106
22136.7
32449.8
40052.5
44271.4
44990.2
42704.2
38317.2
32820.2
27043
21551.3
16659.1
12492.9
9060.03
6303.43
4137.9
2471.6
1217.2
296.828
-356.554
-799.598
-1079.81
-1237.11
-1305.32
-1313.72
-1288.31
-1252.97
-1228.89
-17839
-26931.7
-28797.9
-31269.4
-33766.5
-35539.6
-35768.7
-33746.1
-29086.6
-21856.5
-12548
-1936.66
9069.48
19526.4
28516.7
35248.9
39208.2
40297.5
38860.9
35553.3
31129.6
26264.8
21461.3
17035
13147.7
9852.28
7134.79
4945.12
3217.58
1883.1
875.819
136.079
-388.646
-743.939
-969.18
-1098.5
-1161.72
-1185.15
-1191.87
-1200.65
-18793.3
-27518.3
-28725.7
-30307.2
-31778.3
-32547.2
-32000.7
-29632.6
-25178.4
-18698.3
-10568.2
-1396.26
8080.21
17082.5
24865.5
30806.4
34507.6
35880
35150.5
32779.7
29326.8
25325
21204.3
17265.4
13689.9
10565.8
7916.54
5725.16
3952.18
2547.88
1459.71
636.643
31.303
-399.176
-693.069
-884.356
-1003.12
-1075.81
-1125.04
-1168.71
-19383.9
-27818.6
-28484.4
-29334.3
-29977.4
-29955.9
-28817.1
-26202.9
-21937.9
-16082.5
-8931.8
-965.189
7225.5
15009.2
21787.2
27066.5
30532.2
32097.3
31904.9
30275.2
27619.4
24354.1
20840.7
17355.2
14085.6
11143
8579.49
6405.72
4605.59
3147.42
1991.68
1096.17
419.041
-79.4008
-435.893
-683.884
-853.436
-971.095
-1059.53
-1136.96
-19697.4
-27916
-28175.1
-28479.6
-28514.9
-27925
-26371.4
-23598.3
-19491.2
-14112.8
-7705.01
-654.935
6556.69
13413.7
19428.4
24201.1
27472.5
29156.1
29338.7
28246.1
26186.2
23489.2
20459.8
17348.8
14342.3
11564.4
9086.84
6940.76
5128.53
3633.35
2426.88
1474.72
740.156
186.56
-221.161
-515.746
-727.091
-881.852
-1003
-1109.46
-19834.8
-27910.6
-27901.7
-27848.9
-27490.9
-26539.1
-24727.6
-21863.6
-17870.4
-12811.3
-6898.4
-459.884
6100.47
12340.5
17846.5
22278.7
25412
27160.3
27576.4
26828.6
25160.3
22845.5
20149.7
17303.3
14488
11834.2
9425.25
7305.72
5490.45
3973.1
2733.44
1742.88
968.601
376.424
-67.3876
-394.931
-635.913
-817.079
-961.714
-1089.35
-19880
-27885.2
-27743.6
-27515.2
-26965.1
-25838.2
-23903.6
-20998.8
-17064.3
-12166.3
-6499.95
-365.504
5870.23
11803
17055.6
21317
24378.8
26154.7
26682
26101.9
24626.9
22503.4
19977
17266.9
14551.9
11964.5
9593.53
7489.94
5674.86
4147.38
2891.45
1881.59
1087.11
475.137
12.7223
-331.86
-588.197
-783.08
-939.98
-1078.75
-19187.1
-26389
-26367
-26236
-25786.1
-24774.9
-22976.4
-20227.6
-16464.8
-11753.5
-6284.99
-354.066
5674.76
11410.5
16482.8
20587
23519.5
25198.4
25664.1
25059.2
23596
21517.3
19062.5
16443.6
13830.9
11349.8
9082.94
7076.88
5349.81
3899.29
2708.83
1753.25
1002.68
425.297
-10.752
-336.201
-579.857
-767.922
-923.235
-1064.45
-19117.9
-26392.2
-26506.5
-26557.4
-26308.2
-25481.6
-23814.8
-21110.6
-17289.9
-12421.7
-6696.95
-454.477
5907.11
11957.5
17288.9
21566.2
24568.6
26214.2
26560.6
25780
24117.1
21843.7
19219.1
16465.6
13755.8
11211.9
8910.41
6891.17
5165.94
3726.92
2553.51
1617.57
887.236
329.472
-88.2707
-397.048
-625.756
-800.549
-944.096
-1074.74
-18928.6
-26349.2
-26740.1
-27162.4
-27326.5
-26883.9
-25494.7
-22895.5
-18965.4
-13765.3
-7535.47
-664.396
6369.73
13056.3
18911.4
23536.7
26674
28241.5
28334.6
27188.6
25118.3
22453.9
19494.2
16479.9
13585.6
10925.2
8562.22
6522.23
4804.33
3390.32
2251.76
1354.97
664.468
144.995
-237.186
-513.658
-713.452
-862.635
-983.62
-1094.2
-18525.7
-26169.3
-26981.5
-27975.3
-28784.8
-28956.2
-28024.1
-25610.8
-21526.7
-15830.5
-8825.43
-999.087
7054.69
14706.8
21357.6
26507.4
29835.4
31258.3
30935.8
29211
26512.6
23262.5
19815.1
16432.6
13286.7
10474.4
8037.18
5978.92
4280.01
2907.55
1822.38
983.508
350.741
-113.879
-445.466
-676.122
-834.951
-947.936
-1037.37
-1120.61
-17789.2
-25737.8
-27115.7
-28883.9
-30587.8
-31632.4
-31371.2
-29252.4
-24981.2
-18620.5
-10572.5
-1470.18
7940.53
16881.3
24599.7
30450
34011
35193.7
34258.6
31715.2
28161.7
24144.7
20084.3
16259
12825.4
9851.26
7345.77
5283.64
3621.72
2309.58
1295.76
531.197
-29.199
-426.044
-695.601
-870.219
-978.845
-1047.39
-1098.54
-1150.3
-16578.1
-24947.4
-27025.5
-29748
-32583.5
-34770.8
-35420.1
-33728.1
-29248.5
-22061.6
-12725
-2070.34
8979.61
19487
28521.7
35238.4
39060.1
39879.4
38105.9
34494.4
29876
24950.4
20201.5
15906.9
12189.6
9072.59
6523.06
4481.07
2877.45
1643.41
715.317
36.5307
-442.347
-763.992
-965.26
-1078.22
-1131.22
-1149.89
-1158.09
-1177.61
-14721.9
-23766
-26643.6
-30425.4
-34558.7
-38114.1
-39899.3
-38768.6
-34067.6
-25921
-15120.7
-2753.15
10082.8
22317.9
32844.7
40561.7
44657.5
44981.7
42151.7
37260.7
31435.3
25540.1
20102.6
15372.2
11415.8
8198.96
5640.68
3645.05
2117.68
973.164
137.431
-452.233
-848.339
-1094.73
-1228.2
-1280
-1277.3
-1244.91
-1207.8
-1195.72
-13083.2
-22491.6
-26039.3
-30810.8
-36233.7
-41222.1
-44252.6
-43763.8
-38842.1
-29693.2
-17425.7
-3415.82
11100.1
24991.9
37012.1
45767.7
50131.3
49874.1
45874.7
39639.8
32620.3
25827
19796.4
14722.4
10601.6
7338.21
4804.97
2874.04
1430.25
375.212
-372.69
-880.208
-1201.61
-1381.08
-1454.86
-1453.21
-1402.23
-1326.23
-1251.81
-1214.64
-11715
-21362.9
-25396.6
-30937.4
-37420.7
-43650.5
-47808.3
-47918.2
-42798.3
-32760
-19258.3
-3940.46
11882
27093.8
40369.4
50042.2
54638.9
53829
48762.1
41358.6
33359.1
25874.3
19419
14121
9910.65
6640.18
4146.51
2278.58
906.944
-75.1057
-753.749
-1197.92
-1462.6
-1591.82
-1621.2
-1580.16
-1494.11
-1387.19
-1286.99
-1231.2
-10918.4
-20685.5
-24973.6
-30934.5
-38021.1
-44986.6
-49835.8
-50320
-45075.1
-34493.4
-20272
-4229.38
12301.6
28247.1
42255.2
52487.1
57227.9
56068.4
50343.2
42245.4
33689
25830
19157.8
13754.6
9509.92
6246.51
3781.87
1953.03
623.513
-317.296
-957.591
-1367.16
-1601.17
-1703.43
-1709.13
-1647.25
-1542.83
-1419.95
-1306.53
-1240.6
-10918.9
-20686.1
-24974.5
-30935.6
-38022.4
-44988
-49837.5
-50322.1
-45077.7
-34496.7
-20276.4
-4234.95
12295.5
28241.5
42251.5
52484.9
57226.5
56067.4
50342.5
42244.9
33688.6
25829.8
19157.6
13754.5
9509.85
6246.47
3781.84
1953.01
623.505
-317.299
-957.589
-1367.15
-1601.16
-1703.42
-1709.12
-1647.24
-1542.82
-1419.95
-1306.53
-1240.6
-11717.3
-21365.4
-25399.4
-30940.5
-37424.2
-43654.6
-47813.2
-47924.2
-42805.7
-32769.5
-19270.9
-3956.39
11863.9
27077.7
40357.9
50034.8
54634.3
53825.9
48759.9
41357
33358.1
25873.6
19418.5
14120.7
9910.41
6640.03
4146.41
2278.52
906.911
-75.1189
-753.747
-1197.9
-1462.58
-1591.8
-1621.18
-1580.14
-1494.09
-1387.18
-1286.98
-1231.2
-13087.4
-22495.8
-26043.7
-30815.5
-36239
-41228.3
-44259.9
-43772.8
-38853.3
-29707.4
-17444.2
-3439.42
11067.8
24968.1
36994.2
45755.4
50123.1
49868.6
45870.9
39637.1
32618.4
25825.6
19795.5
14721.8
10601.2
7337.94
4804.8
2873.94
1430.19
375.193
-372.684
-880.185
-1201.58
-1381.05
-1454.83
-1453.17
-1402.2
-1326.21
-1251.8
-1214.64
-14727.3
-23771.4
-26649.2
-30431.4
-34565.5
-38121.9
-39908.5
-38779.7
-34081.2
-25937.8
-15141.7
-2778.92
10048.5
22292.3
32824.6
40546.9
44647.1
44974.4
42146.6
37257.1
31432.7
25538.3
20101.4
15371.3
11415.2
8198.55
5640.41
3644.87
2117.58
973.112
137.415
-452.224
-848.314
-1094.7
-1228.17
-1279.96
-1277.28
-1244.89
-1207.79
-1195.71
-16584.3
-24953.7
-27032.1
-29755.2
-32591.5
-34779.9
-35430.8
-33740.7
-29263.6
-22079.8
-12746.4
-2094.54
8953.82
19463.5
28502.3
35223.3
39048.8
39871.1
38099.9
34490.1
29872.9
24948.3
20200
15905.9
12188.8
9072.06
6522.7
4480.82
2877.28
1643.3
715.261
36.5072
-442.349
-763.98
-965.242
-1078.2
-1131.2
-1149.88
-1158.08
-1177.6
-17796.1
-25744.9
-27123.3
-28892.2
-30596.9
-31642.5
-31382.7
-29265.6
-24996.5
-18638.2
-10592.5
-1491.8
7918.58
16860.9
24582.2
30435.8
34000
35185.4
34252.4
31710.7
28158.5
24142.4
20082.7
16257.8
12824.6
9850.68
7345.35
5283.34
3621.52
2309.44
1295.67
531.148
-29.2222
-426.05
-695.597
-870.21
-978.835
-1047.38
-1098.53
-1150.3
-18533.2
-26177.1
-26989.8
-27984.4
-28794.6
-28967
-28036
-25624.2
-21541.6
-15847.2
-8843.79
-1018.21
7035.88
14689.4
21342.3
26494.7
29825.1
31250.3
30929.8
29206.6
26509.5
23260.3
19813.6
16431.5
13285.9
10473.8
8036.74
5978.6
4279.78
2907.39
1822.27
983.439
350.7
-113.901
-445.475
-676.123
-834.948
-947.932
-1037.37
-1120.6
-18936.4
-26357.4
-26749
-27172.1
-27336.8
-26895.4
-25506.7
-22908.7
-18980.2
-13780.7
-7552.85
-682.345
6353.03
13041.1
18897.9
23525.2
26664.6
28234.1
28329
27184.6
25115.5
22451.9
19492.8
16478.8
13584.9
10924.6
8561.77
6521.89
4804.08
3390.14
2251.63
1354.89
664.412
144.961
-237.206
-513.668
-713.456
-862.635
-983.619
-1094.2
-19126.1
-26400.6
-26515.6
-26567.3
-26319.1
-25493.4
-23826.3
-21123.5
-17308.1
-12431.6
-6713.7
-477.731
5890.91
11943.5
17276.6
21555.6
24559.8
26207.2
26555.4
25776.3
24114.7
21842
19217.9
16464.6
13755.1
11211.3
8909.97
6890.83
5165.68
3726.73
2553.37
1617.47
887.169
329.428
-88.2983
-397.064
-625.765
-800.553
-944.097
-1074.73
-19195.3
-26397.5
-26376.2
-26246.1
-25797.4
-24787
-22987.7
-20239
-16477.9
-11767.3
-6301.45
-377.291
5659.1
11397.1
16471.1
20576.9
23511
25191.7
25659.1
25055.8
23593.7
21515.7
19061.4
16442.7
13830.2
11349.2
9082.5
7076.54
5349.55
3899.09
2708.68
1753.15
1002.6
425.248
-10.7839
-336.221
-579.868
-767.928
-923.238
-1064.45
-17969.3
-24290.6
-24367.7
-24344.8
-24023.5
-23171.2
-21566.7
-19050
-15546.9
-11120.6
-5965.49
-359.272
5346.17
10773.4
15565.2
19427.8
22166.3
23705.1
24087.9
23458.3
22025.6
20026
17688.9
15214.1
12760.1
10441.4
8332.04
6472.21
4876.25
3539.77
2445.89
1570.09
883.85
357.022
-40.5338
-338.038
-563.176
-741.479
-895.256
-1041.81
-17868.8
-24264
-24481
-24646.6
-24536
-23879.9
-22420.2
-19950.1
-16387.8
-11797.6
-6390.37
-466.595
5578.93
11327.7
16383.8
20421.5
23227.1
24725.2
24979
24164.2
22525.2
20328.2
17822.4
15216.9
12671
10294.9
8155.62
6286.38
4694.93
3371.63
2295.66
1439.76
773.599
265.968
-113.851
-395.327
-606.202
-771.956
-914.754
-1051.6
-17611.9
-24156.6
-24658.3
-25211.2
-25537.7
-25291.9
-24131.5
-21785.9
-18125.4
-13204.9
-7266.84
-693.26
6045.69
12450.5
18046.3
22439.6
25375.2
26777.5
26752.5
25547.5
23483.1
20887.2
18047.6
15189.2
12469.9
9988.69
7797.96
5915.87
4337.34
3042.55
2003.25
1187.11
560.54
90.4441
-254.854
-505.197
-688.39
-829.836
-951.537
-1070.06
-17095.1
-23867.7
-24804.6
-25957.9
-26974.7
-27401.4
-26755.5
-24633.1
-20824.5
-15386.5
-8633.07
-1059.16
6745
14160.1
20590.7
25530.9
28651.4
29873.4
29379
27541.3
24810.1
21610.4
18283.6
15069.7
12117.1
9502.97
7254.52
5366.95
3816.33
2568.7
1585.78
828.636
259.636
-156.535
-452.556
-658.541
-802.237
-908.997
-1000.96
-1094.71
-16182.6
-23268.3
-24789.8
-26765.1
-28760.5
-30172.4
-30307.5
-28548.1
-24555.8
-18399.1
-10519.9
-1583.01
7663.37
16454.1
24035
29729.8
33080.1
33994.5
32781.2
30019.7
26359
22358.4
18418.3
14782
11570.6
8823.58
6531.4
4658.54
3157.73
1978.39
1071.13
390.041
-106.513
-455.799
-691.12
-842.441
-937.087
-1000.31
-1055.22
-1120.81
-14667.2
-22231
-24475.1
-27473.1
-30739.1
-33491.2
-34737.1
-33526.4
-29318.4
-22220.2
-12897.6
-2262.4
8758.81
19262.6
28314.9
34990.9
38608.6
39038.9
36791.3
32772.5
27920.2
22958.1
18332.7
14261.2
10810.2
7962.26
5660.15
3832.45
2406.77
1315.88
500.002
-92.8675
-507.464
-782.219
-950.332
-1040.89
-1080
-1092.09
-1101.9
-1137.64
-11642.1
-20690.2
-23774.3
-27918.4
-32689.8
-37131.7
-39854.6
-39408.8
-34943.1
-26662
-15609.6
-3046.34
9943.25
22391.3
33202.8
41101.6
45027.8
44759.2
41118.2
35508.4
29256.4
23256
17956.9
13503.7
9876.28
6983.84
4715.65
2964.24
1634.26
644.52
-72.7931
-573.837
-905.069
-1105.07
-1206.16
-1235.83
-1217.92
-1174.09
-1127.38
-1122.07
-9608.63
-18987.4
-22732.1
-27939.7
-34233.1
-40519.3
-44961
-45444
-40682.8
-31064.1
-18204.9
-3790.69
11017.2
25333.2
37980.3
47252.4
51517.7
50379
45100.1
37747.9
30089.3
23143.6
17299.5
12585.2
8875.52
6003.61
3809.6
2156.28
931.117
43.5023
-579.105
-994.808
-1250.35
-1383.59
-1425.54
-1401.96
-1334.77
-1244.08
-1154.48
-1125.96
-7849.06
-17447.3
-21650.9
-27671
-35230.8
-43178.6
-49272.1
-50676.3
-45601.8
-34686.2
-20235.9
-4355.09
11822
27620.5
41883.8
52479.9
57088.4
55071.1
48203.9
39275.1
30449.2
22794.8
16592.3
11742.2
8022.37
5204.48
3092.83
1530.6
395.015
-409.46
-957.373
-1307.22
-1505.25
-1588.36
-1586.34
-1523.64
-1421.12
-1298.56
-1182.39
-1137.99
-6814.56
-16510.2
-20941.2
-27393.5
-35676.1
-44636.2
-51790
-53799.7
-48503.2
-36739.7
-21327.9
-4648.98
12235.5
28847.8
44088.2
55547.6
60393.3
57791.8
49899.3
40007.2
30516.1
22491.1
16123.4
11228
7524.65
4751.35
2694.32
1187.62
104.207
-653.225
-1159.69
-1473.51
-1640.39
-1696.56
-1671.1
-1587.77
-1466.95
-1328.38
-1199.21
-1145.98
-6814.23
-16510.3
-20941.9
-27394.8
-35677.6
-44637.8
-51791.8
-53802
-48506.1
-36743.2
-21333
-4656.38
12227.2
28839.9
44084.7
55546.2
60392.7
57791.3
49898.9
40006.9
30515.9
22491
16123.4
11228
7524.66
4751.37
2694.34
1187.63
104.22
-653.211
-1159.68
-1473.49
-1640.37
-1696.55
-1671.08
-1587.76
-1466.94
-1328.38
-1199.21
-1145.98
-7851.39
-17449.8
-21653.8
-27674.4
-35234.5
-43182.9
-49277.3
-50682.6
-45609.5
-34696.5
-20250.9
-4375.8
11798.6
27598.4
41870.4
52473
57084.9
55068.9
48202.3
39274
30448.4
22794.2
16591.9
11741.9
8022.22
5204.39
3092.79
1530.58
395.01
-409.449
-957.348
-1307.19
-1505.21
-1588.32
-1586.3
-1523.61
-1421.09
-1298.54
-1182.38
-1137.99
-9613.11
-18991.8
-22736.6
-27944.5
-34238.5
-40525.5
-44968.6
-45453.4
-40694.5
-31079.5
-18226.4
-3818.37
10991.9
25304
37958.2
47239.1
51510
50374.2
45096.8
37745.6
30087.8
23142.5
17298.7
12584.8
8875.24
6003.45
3809.52
2156.25
931.127
43.537
-579.051
-994.742
-1250.28
-1383.52
-1425.48
-1401.9
-1334.73
-1244.05
-1154.47
-1125.95
-11647.6
-20695.6
-23779.7
-27924.2
-32696.4
-37139.4
-39863.8
-39420
-34957
-26679.8
-15633.1
-3074.92
9917.47
22361.9
33179.1
41085.4
45017.3
44752.2
41113.5
35505.3
29254.2
23254.5
17955.9
13503
9875.79
6983.52
4715.46
2964.13
1634.22
644.516
-72.7663
-573.79
-905.01
-1105.01
-1206.1
-1235.78
-1217.88
-1174.05
-1127.36
-1122.06
-14673.2
-22237.2
-24481.6
-27480.2
-30747
-33500.3
-34747.7
-33539.2
-29334.1
-22240.2
-12921.7
-2290.36
8729.38
19234.8
28293.3
34974.7
38597.1
39030.8
36785.7
32768.6
27917.5
22956.2
18331.4
14260.3
10809.5
7961.8
5659.83
3832.24
2406.64
1315.81
499.966
-92.874
-507.451
-782.195
-950.304
-1040.86
-1079.97
-1092.07
-1101.89
-1137.64
-16189.2
-23275.2
-24797.2
-26773.3
-28769.4
-30182.4
-30319
-28561.5
-24571.6
-18417.8
-10541.5
-1606.94
7638.82
16431.4
24016.2
29715
33069
33986.4
32775.4
30015.6
26356.1
22356.4
18416.9
14781
11569.9
8823.07
6531.04
4658.29
3157.56
1978.28
1071.07
390.007
-106.524
-455.796
-691.109
-842.427
-937.073
-1000.3
-1055.21
-1120.81
-17102.3
-23875.3
-24813
-25967.3
-26984.3
-27412.2
-26767.5
-24646.5
-20839.6
-15403.8
-8652.36
-1079.08
6725.29
14141.9
20575
25518.1
28641.3
29865.7
29373.4
27537.4
24807.4
21608.6
18282.3
15068.8
12116.5
9502.46
7254.15
5366.67
3816.14
2568.56
1585.69
828.581
259.605
-156.549
-452.559
-658.538
-802.231
-908.992
-1000.96
-1094.71
-17619.4
-24164.5
-24667.2
-25221.2
-25548
-25304.1
-24143.6
-21799
-18139.2
-13221.4
-7285.45
-709.927
6029.53
12435.5
18033.1
22428.4
25366.2
26770.5
26747.4
25544.1
23481
20885.8
18046.6
15188.4
12469.2
9988.19
7797.58
5915.58
4337.12
3042.39
2003.15
1187.04
560.493
90.4168
-254.868
-505.203
-688.391
-829.835
-951.535
-1070.05
-17876.6
-24272.1
-24490
-24656.8
-24547.3
-23892.8
-22430.3
-19961
-16395.9
-11817.3
-6407.44
-474.922
5565.77
11314.7
16372.1
20411.3
23218.7
24718.7
24974.3
24161.3
22523.6
20327.1
17821.5
15216.2
12670.4
10294.4
8155.25
6286.09
4694.71
3371.47
2295.54
1439.68
773.542
265.931
-113.873
-395.339
-606.208
-771.958
-914.754
-1051.6
-17977.2
-24298.8
-24376.8
-24355.1
-24035.5
-23185
-21576.9
-19058.8
-15558.1
-11134.3
-5979.3
-365.411
5334.29
10761.4
15554.2
19418.1
22158.2
23698.7
24083.6
23455.8
22024.2
20025
17688.1
15213.4
12759.6
10441
8331.66
6471.91
4876.02
3539.6
2445.76
1570
883.786
356.98
-40.5608
-338.054
-563.185
-741.483
-895.258
-1041.81
-16196.8
-21601.4
-21754.1
-21833.4
-21650.8
-20984.5
-19618.4
-17380.3
-14225.3
-10215.8
-5501.93
-356.509
4887.43
9874.65
14269.3
17795.2
20270.5
21627.6
21913.5
21268.9
19897.1
18022.3
15858.6
13588.6
11354.7
9257.17
7359.34
5693.97
4270.87
3083.69
2115.47
1342.94
739.586
277.683
-70.4954
-332.07
-533.276
-699.102
-852.07
-1008.96
-16063.4
-21541.9
-21835.7
-22107.5
-22143.8
-21683.9
-20456.7
-18283.5
-15090.6
-10908.7
-5935.57
-469.706
5116.38
10426.9
15086.9
18786.9
21325
22633.8
22781.6
21945
20363.2
18291.8
15963.9
13570.1
11251.9
9104.1
7182.31
5511.84
4096.08
2923.64
1973.9
1221.14
637.299
193.752
-137.664
-384.234
-572.215
-726.553
-869.662
-1018.07
-15735.8
-21363.9
-21945.8
-22615.8
-23112.2
-23082.4
-22190.2
-20166.2
-16871.2
-12347.3
-6836.66
-710.39
5579.57
11556.5
16765.2
20823.7
23483.9
24677.7
24522
23273.3
21253.8
18782.2
16128.9
13496.3
11020.6
8782.62
6821.57
5147.23
3750.24
2609.56
1697.75
984.602
439.294
31.7096
-267.007
-484.346
-646.553
-778.525
-902.633
-1035.11
-15103.7
-20957.8
-21979.8
-23271.6
-24492.5
-25194.3
-24880.8
-23121.3
-19684
-14623.6
-8264.71
-1104.34
6283.24
13304.2
19379.9
24004.4
26840.3
27813.6
27131.1
25196.4
22476.8
19392.7
16263.1
13297.5
10614.5
8267.83
6268.75
4603.25
3243.5
2155.16
1301.86
647.708
158.636
-197.108
-448.962
-624.412
-749.508
-849.139
-946.134
-1057.35
-14041.1
-20186.5
-21789.2
-23937.7
-26219.4
-28028.7
-28623.3
-27307.7
-23690.2
-17850
-10280.5
-1678.61
7223.26
15698.5
23009
28448
31508.9
32093.9
30568.7
27594.6
23872.9
19964.9
16236.5
12882.9
9981.03
7537.96
5524.13
3894.04
2597.4
1584.82
810.42
232.727
-185.243
-476.386
-670.172
-793.5
-871.686
-929.41
-991.022
-1078.15
-12515
-18949.2
-21209.6
-24422.4
-28118.8
-31500.9
-33457.2
-32845.9
-28999
-22068.2
-12878.3
-2435.71
8360.59
18692.4
27651.5
34219.8
37560
37504.7
34697.8
30242
25195.3
20287.6
15900
12167
9086.49
6595.55
4612.36
3055.57
1851.86
937.791
259.395
-228.976
-566.01
-784.732
-913.731
-978.336
-1001.84
-1006.98
-1018.73
-1074.02
-7826.63
-18002
-20500.4
-24239.3
-28889.7
-33641.5
-37168.3
-37876.8
-34610.8
-27339
-17086.2
-5219.68
7189.72
19290.6
30129.3
38465.7
43024.9
43277.7
39892.8
34343.8
28106.3
22167.9
16995.4
12709.2
9258.09
6528.49
4397.78
2754.96
1506.11
573.807
-105.287
-583.019
-902.065
-1097.87
-1200.2
-1234.51
-1222.94
-1184.96
-1136.91
-1089.37
-5193.3
-16168.3
-19005.7
-23708.6
-29932.9
-36822
-42619.5
-44870.6
-41646.7
-32962.6
-20623