/*--------------------------------*- C++ -*----------------------------------*\
| =========                 |                                                 |
| \\      /  F ield         | OpenFOAM: The Open Source CFD Toolbox           |
|  \\    /   O peration     | Version:  2406                                  |
|   \\  /    A nd           | Website:  www.openfoam.com                      |
|    \\/     M anipulation  |                                                 |
\*---------------------------------------------------------------------------*/
FoamFile
{
    version     2.0;
    format      ascii;
    arch        "LSB;label=32;scalar=64";
    class       volScalarField;
    location    "0.04368";
    object      p;
}
// * * * * * * * * * * * * * * * * * * * * * * * * * * * * * * * * * * * * * //

dimensions      [1 -1 -2 0 0 0 0];

internalField   nonuniform List<scalar> 
207657
(
947489
949888
951301
952226
952900
953410
953803
954106
954336
954506
954628
954711
954765
954799
954821
954837
954852
954872
954896
954926
954960
954997
955035
955072
955106
955138
955164
955186
955203
955214
955221
955223
955220
955212
955200
955183
955161
955135
955107
955074
947495
949894
951307
952233
952908
953420
953814
954117
954347
954515
954633
954711
954759
954787
954804
954817
954831
954850
954875
954907
954945
954985
955026
955066
955103
955136
955164
955186
955203
955215
955222
955223
955220
955213
955200
955183
955161
955135
955107
955073
947508
949905
951319
952247
952925
953440
953837
954141
954369
954532
954642
954710
954747
954764
954770
954776
954786
954805
954834
954871
954915
954962
955010
955055
955097
955133
955163
955187
955205
955217
955223
955225
955222
955214
955201
955184
955162
955136
955107
955072
947536
949930
951341
952269
952950
953470
953872
954178
954403
954558
954656
954708
954727
954726
954718
954713
954717
954736
954770
954816
954871
954929
954987
955041
955088
955129
955162
955187
955206
955219
955225
955227
955223
955215
955203
955185
955163
955136
955107
955071
947588
949973
951374
952300
952984
953510
953919
954228
954450
954595
954676
954705
954699
954675
954646
954626
954623
954644
954686
954745
954815
954888
954958
955023
955078
955124
955161
955188
955208
955221
955227
955228
955224
955216
955203
955185
955163
955136
955107
955070
947688
950045
951422
952338
953023
953558
953975
954289
954508
954640
954699
954701
954666
954612
954558
954519
954508
954531
954584
954661
954749
954841
954928
955004
955068
955120
955160
955189
955209
955222
955228
955229
955225
955216
955203
955185
955163
955137
955107
955069
947867
950151
951482
952379
953063
953607
954035
954353
954568
954686
954722
954696
954628
954542
954461
954403
954384
954410
954476
954572
954683
954794
954898
954987
955060
955117
955159
955190
955211
955223
955229
955229
955224
955215
955202
955184
955163
955137
955107
955069
947957
950212
951520
952408
953095
953648
954086
954410
954622
954728
954742
954689
954592
954477
954370
954294
954267
954296
954375
954491
954623
954754
954873
954973
955053
955115
955160
955191
955212
955224
955230
955229
955223
955214
955200
955183
955162
955136
955107
955068
947991
950239
951538
952423
953115
953676
954123
954452
954662
954758
954755
954681
954562
954426
954300
954210
954177
954209
954299
954430
954579
954725
954855
954964
955050
955114
955161
955193
955213
955225
955230
955228
955222
955212
955199
955182
955161
955136
955107
955067
948001
950247
951544
952429
953124
953690
954142
954474
954682
954772
954762
954677
954546
954399
954262
954165
954129
954162
954259
954397
954555
954709
954846
954959
955048
955114
955161
955194
955214
955226
955230
955228
955222
955212
955198
955181
955160
955135
955106
955067
948001
950247
951544
952429
953124
953690
954142
954474
954683
954772
954762
954677
954546
954399
954262
954165
954129
954162
954259
954397
954555
954709
954846
954959
955048
955114
955161
955194
955214
955226
955230
955228
955222
955212
955198
955181
955160
955135
955106
955067
947991
950238
951538
952423
953115
953676
954123
954452
954662
954758
954756
954682
954563
954426
954300
954210
954177
954209
954299
954430
954578
954725
954855
954964
955050
955114
955161
955193
955213
955225
955230
955228
955222
955212
955199
955182
955161
955136
955107
955067
947956
950212
951520
952407
953095
953648
954086
954410
954622
954728
954743
954689
954592
954478
954370
954294
954267
954296
954375
954491
954623
954754
954873
954973
955053
955115
955160
955191
955212
955224
955230
955229
955223
955214
955200
955183
955162
955136
955107
955068
947867
950150
951481
952378
953063
953606
954035
954353
954568
954687
954723
954696
954629
954543
954461
954403
954384
954409
954476
954572
954682
954794
954898
954987
955060
955117
955159
955190
955211
955223
955229
955229
955224
955215
955202
955184
955163
955137
955107
955069
947687
950045
951422
952337
953023
953557
953975
954288
954507
954640
954699
954702
954666
954612
954558
954520
954508
954531
954584
954660
954749
954841
954927
955004
955068
955120
955160
955189
955209
955222
955228
955229
955225
955216
955203
955185
955163
955137
955107
955069
947588
949973
951374
952299
952983
953510
953918
954227
954450
954595
954676
954705
954700
954675
954646
954626
954623
954644
954686
954745
954814
954887
954958
955023
955078
955124
955161
955188
955208
955221
955227
955228
955224
955216
955203
955186
955163
955136
955107
955070
947535
949929
951340
952269
952950
953470
953871
954178
954403
954558
954656
954708
954727
954726
954718
954713
954717
954736
954770
954816
954871
954929
954987
955041
955088
955129
955162
955187
955206
955219
955225
955227
955223
955215
955203
955185
955163
955136
955107
955071
947507
949905
951319
952246
952924
953439
953836
954141
954368
954532
954642
954710
954747
954764
954771
954776
954786
954805
954833
954871
954915
954962
955010
955055
955097
955133
955163
955187
955205
955217
955223
955225
955222
955214
955201
955184
955162
955136
955107
955072
947494
949893
951306
952232
952907
953419
953814
954117
954346
954515
954633
954712
954760
954788
954804
954817
954831
954850
954875
954907
954945
954985
955026
955066
955103
955136
955164
955186
955203
955215
955222
955223
955220
955213
955200
955183
955161
955135
955107
955073
947488
949887
951300
952225
952899
953409
953802
954105
954336
954506
954629
954712
954766
954799
954821
954837
954852
954871
954896
954925
954959
954996
955034
955071
955106
955138
955164
955186
955203
955214
955221
955223
955220
955212
955200
955183
955161
955135
955107
955074
848900
850017
851039
851829
852442
852921
853296
853587
853810
853976
854094
854176
854229
854262
854283
854299
854315
854334
854358
854386
854420
854455
854492
854528
854562
854592
854617
854638
854654
854665
854671
854673
854670
854662
854649
854632
854611
854585
854557
854523
848905
850022
851045
851835
852450
852931
853307
853599
853821
853984
854099
854175
854223
854250
854267
854279
854293
854312
854337
854369
854405
854444
854484
854523
854559
854590
854617
854639
854655
854666
854672
854674
854670
854663
854650
854633
854611
854585
854557
854522
848916
850032
851056
851848
852466
852950
853330
853623
853843
854001
854108
854174
854210
854226
854233
854238
854249
854267
854295
854332
854375
854422
854468
854513
854553
854587
854616
854639
854656
854668
854674
854675
854672
854664
854651
854634
854612
854586
854557
854521
848938
850053
851074
851868
852490
852980
853365
853660
853878
854029
854123
854173
854190
854188
854180
854174
854178
854197
854231
854277
854331
854389
854446
854498
854544
854584
854615
854640
854658
854670
854676
854677
854673
854665
854653
854635
854613
854586
854557
854520
848985
850091
851104
851895
852522
853020
853413
853713
853928
854068
854144
854170
854162
854135
854105
854083
854081
854101
854144
854204
854275
854348
854418
854481
854535
854579
854614
854641
854660
854672
854678
854678
854674
854666
854653
854636
854614
854587
854557
854519
849082
850160
851146
851929
852559
853068
853472
853778
853992
854117
854170
854167
854126
854068
854010
853969
853958
853982
854038
854117
854208
854301
854388
854463
854526
854576
854614
854642
854661
854673
854679
854679
854674
854666
854652
854635
854614
854587
854557
854519
849286
850276
851202
851965
852597
853118
853537
853850
854059
854170
854197
854162
854087
853994
853905
853842
853821
853850
853922
854024
854140
854255
854359
854447
854518
854573
854614
854643
854662
854674
854679
854679
854673
854664
854651
854634
854613
854587
854559
854521
849363
850332
851233
851988
852626
853161
853593
853914
854121
854217
854219
854154
854047
853923
853804
853721
853691
853724
853813
853939
854079
854215
854336
854435
854513
854572
854615
854644
854664
854675
854679
854678
854672
854662
854649
854632
854612
854587
854559
854520
849390
850350
851244
851998
852643
853190
853633
853962
854165
854249
854232
854144
854015
853867
853727
853628
853591
853628
853729
853875
854035
854188
854320
854428
854511
854572
854616
854646
854665
854675
854679
854677
854671
854660
854647
854630
854611
854586
854558
854520
849396
850354
851246
852001
852650
853203
853654
853986
854188
854265
854237
854138
853998
853838
853687
853578
853537
853576
853685
853841
854012
854173
854312
854424
854510
854573
854617
854647
854666
854676
854679
854677
854670
854659
854646
854630
854610
854586
854558
854519
849396
850354
851246
852001
852650
853203
853654
853986
854188
854265
854238
854139
853998
853838
853687
853578
853537
853576
853685
853841
854012
854173
854312
854424
854510
854573
854617
854647
854666
854676
854679
854677
854670
854659
854646
854630
854610
854586
854558
854519
849390
850350
851244
851998
852643
853190
853633
853962
854166
854249
854232
854145
854015
853868
853728
853628
853591
853627
853729
853875
854035
854188
854320
854428
854511
854572
854616
854646
854665
854675
854679
854677
854671
854660
854647
854630
854611
854586
854558
854520
849363
850331
851233
851988
852626
853161
853593
853914
854121
854217
854219
854154
854048
853923
853805
853721
853691
853724
853812
853939
854079
854215
854335
854435
854513
854572
854615
854644
854664
854675
854679
854678
854672
854662
854649
854632
854612
854587
854559
854520
849286
850276
851202
851965
852597
853118
853536
853849
854059
854170
854197
854162
854088
853995
853906
853842
853821
853850
853921
854024
854140
854255
854359
854447
854518
854573
854614
854643
854662
854674
854679
854679
854674
854664
854651
854634
854613
854587
854559
854521
849082
850159
851145
851929
852559
853068
853472
853777
853990
854117
854170
854167
854127
854068
854011
853970
853958
853982
854038
854117
854208
854301
854387
854463
854526
854576
854614
854642
854661
854673
854679
854679
854675
854666
854653
854635
854614
854587
854557
854519
848985
850090
851103
851895
852521
853020
853412
853712
853928
854068
854144
854171
854162
854135
854105
854083
854081
854101
854144
854204
854274
854347
854418
854481
854535
854579
854614
854641
854660
854672
854678
854678
854674
854666
854653
854636
854614
854587
854557
854519
848937
850052
851074
851867
852489
852980
853364
853660
853878
854029
854123
854173
854190
854189
854180
854174
854178
854197
854231
854277
854331
854389
854445
854498
854544
854583
854615
854640
854658
854670
854676
854677
854673
854665
854653
854635
854613
854586
854557
854520
848915
850032
851055
851847
852465
852950
853329
853622
853843
854001
854109
854175
854210
854227
854233
854238
854248
854267
854295
854332
854375
854422
854468
854512
854552
854587
854616
854639
854656
854668
854674
854675
854672
854664
854651
854634
854612
854586
854557
854521
848904
850021
851044
851835
852449
852930
853306
853598
853821
853984
854099
854176
854223
854251
854267
854279
854293
854312
854337
854368
854405
854444
854484
854522
854558
854590
854617
854639
854655
854666
854672
854674
854670
854663
854650
854633
854611
854585
854557
854522
848899
850016
851038
851828
852441
852920
853295
853587
853810
853976
854095
854177
854229
854262
854283
854299
854315
854334
854357
854386
854419
854455
854492
854528
854561
854592
854617
854638
854654
854665
854671
854673
854670
854662
854649
854632
854611
854585
854557
854523
749630
750211
750909
751535
752059
752487
752830
753100
753309
753465
753578
753656
753707
753740
753761
753777
753792
753811
753833
753861
753892
753926
753960
753993
754024
754052
754076
754095
754109
754119
754125
754125
754122
754114
754102
754085
754063
754037
754008
753973
749633
750215
750913
751540
752066
752496
752840
753112
753320
753474
753583
753656
753702
753729
753745
753758
753771
753789
753813
753843
753878
753915
753952
753988
754022
754051
754076
754095
754110
754120
754126
754126
754123
754115
754102
754085
754064
754037
754008
753973
749640
750222
750921
751551
752081
752515
752863
753136
753343
753492
753593
753656
753690
753705
753712
753717
753726
753744
753772
753807
753849
753893
753937
753979
754016
754049
754075
754096
754112
754122
754127
754128
754124
754116
754104
754087
754065
754038
754008
753972
749655
750235
750934
751567
752103
752544
752898
753175
753380
753522
753610
753655
753670
753666
753657
753650
753654
753673
753707
753752
753805
753861
753916
753966
754009
754046
754075
754097
754114
754124
754129
754130
754126
754118
754105
754088
754066
754039
754009
753971
749694
750262
750953
751588
752131
752584
752949
753231
753434
753565
753633
753653
753640
753610
753576
753553
753550
753571
753615
753677
753748
753820
753889
753950
754001
754042
754075
754099
754115
754126
754131
754131
754127
754119
754106
754089
754067
754040
754010
753971
749794
750323
750984
751612
752165
752633
753014
753307
753510
753623
753663
753650
753601
753535
753470
753423
753412
753438
753499
753584
753679
753774
753860
753933
753993
754039
754074
754100
754117
754127
754132
754131
754126
754118
754105
754088
754067
754041
754011
753972
750211
750473
751030
751637
752197
752685
753086
753394
753594
753688
753696
753645
753557
753452
753348
753273
753249
753283
753366
753482
753608
753729
753834
753920
753987
754038
754075
754101
754118
754128
754132
754130
754124
754115
754102
754085
754065
754041
754015
753979
750312
750516
751043
751646
752219
752730
753157
753475
753670
753747
753722
753634
753511
753368
753225
753125
753089
753131
753240
753389
753546
753692
753814
753912
753985
754039
754077
754102
754119
754128
754131
754128
754122
754111
754098
754082
754063
754041
754016
753980
750328
750519
751037
751643
752228
752759
753205
753535
753727
753784
753734
753621
753475
753305
753134
753012
752966
753014
753144
753320
753503
753668
753803
753908
753986
754041
754079
754104
754120
754128
754130
754127
754119
754108
754096
754080
754062
754040
754015
753980
750326
750513
751030
751639
752231
752773
753229
753566
753755
753802
753736
753610
753455
753273
753089
752953
752900
752951
753091
753284
753482
753657
753799
753907
753987
754043
754081
754105
754120
754128
754130
754126
754118
754107
754094
754079
754061
754040
754015
753979
750326
750513
751030
751638
752230
752773
753229
753566
753755
753802
753736
753610
753455
753273
753089
752953
752900
752951
753091
753284
753482
753657
753799
753907
753987
754042
754081
754105
754120
754128
754130
754126
754118
754107
754094
754079
754061
754040
754015
753979
750328
750518
751037
751643
752228
752759
753205
753535
753727
753785
753735
753622
753476
753306
753135
753012
752966
753014
753144
753320
753503
753668
753803
753908
753985
754041
754079
754104
754120
754128
754130
754127
754119
754108
754096
754080
754062
754040
754015
753980
750311
750516
751042
751646
752219
752730
753157
753475
753670
753747
753723
753636
753513
753369
753226
753125
753089
753131
753240
753388
753546
753692
753814
753911
753985
754039
754077
754102
754119
754128
754131
754128
754122
754111
754098
754082
754063
754041
754016
753980
750211
750472
751029
751637
752197
752685
753085
753394
753593
753688
753697
753646
753558
753452
753348
753273
753249
753283
753366
753482
753608
753728
753834
753920
753987
754038
754075
754101
754118
754128
754132
754130
754124
754115
754102
754085
754065
754041
754015
753979
749793
750322
750983
751612
752164
752632
753014
753306
753507
753622
753664
753651
753602
753536
753470
753424
753412
753438
753499
753584
753679
753774
753860
753933
753993
754039
754074
754100
754117
754127
754132
754131
754126
754118
754105
754088
754067
754041
754011
753972
749693
750262
750953
751587
752131
752583
752949
753231
753434
753565
753633
753654
753640
753610
753577
753553
753550
753571
753615
753677
753748
753820
753889
753950
754001
754042
754074
754099
754115
754126
754131
754131
754127
754119
754106
754089
754067
754040
754010
753971
749654
750234
750933
751566
752102
752543
752898
753175
753380
753522
753610
753655
753670
753667
753657
753650
753654
753673
753706
753752
753805
753861
753915
753965
754009
754045
754075
754097
754114
754124
754129
754130
754126
754118
754105
754088
754066
754039
754009
753971
749639
750221
750920
751550
752080
752514
752862
753135
753343
753492
753594
753656
753690
753706
753712
753717
753726
753744
753772
753807
753849
753893
753937
753979
754016
754049
754075
754096
754112
754122
754127
754128
754124
754116
754104
754087
754065
754038
754008
753972
749632
750214
750912
751539
752066
752495
752840
753111
753320
753474
753584
753659
753703
753729
753745
753758
753771
753789
753813
753843
753877
753914
753952
753988
754021
754051
754076
754095
754110
754120
754126
754126
754123
754115
754102
754085
754064
754037
754008
753973
749629
750210
750908
751534
752058
752486
752829
753100
753309
753465
753579
753659
753708
753740
753761
753777
753792
753811
753833
753860
753892
753925
753960
753993
754024
754052
754076
754095
754109
754119
754124
754125
754122
754114
754102
754085
754063
754037
754008
753973
649992
650333
650814
651296
651728
652095
652397
652640
652830
652974
653079
653152
653201
653233
653255
653271
653285
653303
653324
653349
653377
653407
653437
653467
653494
653519
653539
653556
653568
653576
653580
653580
653576
653568
653556
653539
653518
653491
653462
653426
649993
650335
650816
651300
651734
652103
652408
652651
652841
652982
653084
653153
653196
653223
653239
653252
653265
653282
653305
653332
653363
653397
653430
653463
653492
653518
653539
653557
653569
653577
653581
653581
653577
653569
653557
653540
653519
653492
653462
653425
649994
650337
650821
651308
651747
652121
652429
652675
652864
653001
653095
653153
653185
653200
653206
653212
653221
653239
653264
653298
653336
653377
653417
653454
653488
653516
653540
653558
653571
653579
653584
653583
653579
653571
653558
653542
653520
653493
653463
653425
649997
650339
650825
651319
651765
652149
652465
652716
652903
653032
653112
653153
653165
653161
653151
653144
653148
653166
653199
653243
653294
653346
653397
653443
653482
653514
653540
653559
653573
653582
653586
653586
653581
653573
653560
653544
653522
653495
653464
653425
650017
650344
650829
651330
651789
652188
652518
652777
652962
653079
653138
653152
653133
653099
653064
653039
653035
653057
653102
653165
653236
653307
653373
653429
653475
653512
653540
653561
653575
653584
653587
653587
653582
653574
653561
653545
653524
653497
653466
653426
650145
650373
650833
651338
651816
652239
652592
652865
653046
653146
653173
653149
653086
653013
652941
652889
652875
652904
652972
653064
653165
653262
653346
653415
653469
653510
653541
653562
653576
653584
653587
653586
653580
653572
653559
653544
653524
653498
653468
653429
651081
650525
650844
651341
651839
652298
652685
652983
653168
653235
653214
653140
653036
652912
652790
652697
652666
652708
652810
652947
653089
653218
653323
653405
653466
653510
653541
653562
653576
653583
653586
653583
653576
653567
653554
653538
653520
653499
653477
653446
651167
650520
650820
651325
651849
652346
652774
653095
653273
653316
653241
653123
652979
652816
652631
652502
652456
652513
652658
652844
653028
653186
653311
653402
653468
653514
653544
653564
653576
653582
653584
653579
653571
653561
653548
653533
653517
653498
653478
653448
651151
650487
650785
651300
651844
652372
652838
653179
653351
653361
653245
653095
652933
652744
652519
652357
652292
652361
652543
652771
652990
653172
653308
653406
653473
653518
653548
653566
653576
653582
653582
653576
653568
653557
653545
653530
653515
653497
653478
653449
651132
650463
650762
651282
651836
652382
652869
653222
653390
653380
653235
653072
652909
652711
652468
652281
652203
652278
652482
652735
652974
653167
653309
653409
653477
653522
653551
653568
653577
653582
653581
653574
653566
653555
653543
653529
653514
653497
653478
653449
651132
650462
650762
651282
651836
652382
652869
653222
653390
653380
653235
653072
652910
652711
652467
652281
652202
652278
652481
652735
652974
653167
653309
653409
653477
653522
653551
653568
653577
653582
653581
653574
653566
653555
653543
653529
653514
653497
653478
653449
651150
650486
650785
651300
651844
652372
652838
653179
653351
653362
653246
653097
652934
652746
652519
652357
652291
652361
652543
652771
652990
653171
653308
653406
653473
653518
653548
653566
653576
653582
653582
653576
653568
653557
653545
653530
653515
653497
653478
653449
651166
650520
650819
651324
651849
652345
652774
653095
653273
653317
653242
653125
652981
652817
652632
652502
652456
652513
652658
652843
653028
653186
653310
653402
653468
653513
653544
653564
653576
653582
653584
653579
653571
653561
653548
653533
653517
653498
653478
653448
651080
650525
650844
651340
651839
652297
652685
652984
653169
653236
653215
653141
653037
652914
652791
652697
652666
652708
652810
652947
653089
653217
653323
653405
653466
653510
653541
653562
653576
653583
653586
653583
653576
653567
653554
653538
653520
653499
653477
653446
650144
650372
650832
651338
651815
652238
652592
652866
653050
653147
653174
653150
653088
653015
652942
652890
652875
652904
652971
653064
653165
653262
653346
653415
653469
653510
653541
653562
653576
653584
653587
653586
653580
653572
653559
653544
653524
653498
653468
653429
650016
650344
650828
651329
651789
652188
652518
652777
652963
653080
653139
653152
653134
653100
653064
653039
653035
653057
653102
653165
653236
653307
653372
653429
653475
653512
653540
653561
653575
653584
653587
653587
653582
653574
653561
653545
653524
653497
653466
653426
649996
650339
650824
651318
651765
652149
652465
652716
652903
653032
653113
653153
653165
653161
653151
653144
653148
653166
653199
653242
653293
653346
653397
653443
653482
653514
653540
653559
653573
653582
653586
653586
653581
653573
653560
653544
653522
653495
653464
653425
649994
650336
650820
651307
651746
652121
652429
652675
652864
653001
653095
653153
653185
653200
653207
653212
653221
653238
653264
653297
653336
653376
653416
653454
653488
653516
653540
653558
653571
653579
653583
653583
653579
653571
653558
653542
653520
653493
653463
653425
649992
650334
650816
651299
651733
652103
652407
652651
652840
652982
653084
653150
653196
653223
653239
653252
653265
653282
653304
653332
653363
653397
653430
653462
653492
653518
653539
653556
653569
653577
653581
653581
653577
653569
653557
653540
653519
653492
653462
653425
649991
650333
650813
651295
651727
652094
652396
652639
652829
652973
653078
653150
653201
653233
653254
653270
653285
653303
653323
653348
653377
653407
653437
653467
653494
653519
653539
653556
653568
653576
653580
653580
653576
653568
653556
653539
653518
653491
653462
653426
550137
550364
550710
551080
551428
551733
551990
552201
552368
552497
552593
552661
552709
552741
552763
552779
552794
552810
552829
552850
552874
552899
552924
552949
552971
552991
553007
553020
553030
553036
553038
553037
553032
553024
553012
552996
552975
552949
552918
552880
550136
550364
550711
551083
551433
551741
552000
552211
552379
552506
552598
552663
552705
552732
552750
552763
552776
552792
552812
552835
552862
552890
552918
552945
552970
552991
553008
553021
553031
553037
553040
553038
553034
553026
553013
552997
552976
552949
552919
552880
550131
550361
550711
551088
551444
551757
552021
552235
552401
552524
552609
552663
552694
552710
552718
552725
552735
552751
552774
552804
552837
552872
552907
552939
552967
552990
553009
553023
553033
553040
553042
553041
553036
553028
553016
552999
552978
552951
552920
552880
550112
550349
550707
551093
551459
551783
552056
552275
552440
552556
552628
552664
552675
552672
552663
552658
552662
552680
552711
552751
552798
552845
552890
552929
552962
552989
553010
553025
553036
553042
553045
553043
553039
553031
553018
553002
552981
552954
552923
552881
550033
550310
550690
551093
551477
551820
552111
552341
552506
552608
552657
552664
552641
552607
552571
552547
552543
552565
552611
552673
552741
552808
552868
552918
552957
552988
553011
553027
553038
553044
553046
553044
553039
553031
553019
553004
552984
552958
552927
552885
549831
550222
550648
551080
551494
551873
552197
552447
552609
552687
552698
552665
552582
552506
552428
552371
552354
552388
552464
552565
552670
552766
552845
552907
552953
552987
553012
553028
553038
553043
553044
553042
553037
553028
553017
553003
552984
552961
552931
552891
572982
574894
575536
576019
576482
576918
577308
577627
577821
577910
577903
577831
577726
577595
577462
577352
577300
577318
577418
577553
577697
577827
577931
578010
578067
578108
578136
578155
578166
578172
578172
578169
578163
578155
578145
578131
578116
578098
578078
578066
572896
574776
575446
575962
576466
576956
577407
577761
577967
578004
577943
577814
577665
577490
577303
577124
577030
577067
577209
577414
577619
577790
577918
578009
578071
578112
578139
578156
578165
578170
578169
578163
578156
578149
578139
578127
578114
578098
578084
578077
572786
574679
575370
575905
576436
576971
577484
577882
578091
578094
577958
577789
577613
577412
577183
576930
576794
576838
577041
577316
577575
577778
577921
578017
578080
578120
578144
578159
578166
578168
578165
578158
578151
578143
578133
578123
578110
578097
578084
578078
572735
574628
575320
575861
576404
576968
577518
577955
578166
578133
577957
577757
577583
577376
577128
576822
576646
576693
576939
577265
577559
577780
577930
578028
578089
578127
578149
578161
578167
578168
578164
578156
578149
578140
578131
578120
578108
578096
578084
578079
572724
574617
575309
575850
576398
576966
577524
577970
578181
578140
577954
577750
577578
577370
577116
576800
576615
576661
576917
577255
577557
577781
577933
578030
578091
578129
578150
578162
578167
578168
578164
578155
578148
578140
578131
578120
578108
578096
578084
578079
572753
574646
575339
575879
576418
576970
577503
577925
578136
578118
577961
577771
577596
577390
577149
576865
576705
576751
576979
577284
577564
577778
577926
578023
578085
578124
578147
578160
578166
578168
578165
578157
578150
578141
578132
578121
578109
578096
578084
578079
572823
574713
575403
575932
576452
576966
577461
577827
578037
578054
577958
577805
577638
577448
577238
577018
576901
576940
577115
577358
577592
577780
577918
578012
578075
578116
578142
578157
578165
578169
578167
578160
578153
578145
578136
578125
578111
578098
578085
578078
572971
574845
575483
575987
576473
576937
577357
577693
577891
577959
577922
577819
577692
577542
577382
577244
577168
577184
577307
577478
577654
577804
577922
578008
578068
578110
578137
578155
578166
578171
578171
578167
578160
578152
578142
578130
578116
578099
578084
578075
549830
550222
550647
551079
551494
551872
552197
552447
552610
552689
552699
552666
552584
552508
552429
552371
552354
552388
552464
552564
552669
552766
552845
552907
552953
552987
553012
553028
553038
553043
553044
553042
553037
553028
553017
553003
552984
552961
552931
552891
550032
550309
550689
551093
551476
551820
552111
552341
552506
552608
552658
552665
552643
552608
552572
552547
552543
552565
552611
552673
552741
552808
552868
552918
552957
552988
553011
553027
553038
553044
553046
553044
553040
553031
553019
553004
552984
552958
552927
552885
550111
550348
550707
551093
551458
551782
552055
552275
552441
552556
552628
552664
552676
552672
552663
552658
552662
552680
552711
552751
552797
552845
552890
552929
552962
552989
553010
553025
553036
553042
553045
553043
553039
553031
553018
553002
552981
552954
552923
552881
550130
550361
550711
551088
551443
551756
552020
552235
552401
552524
552609
552663
552695
552710
552718
552725
552735
552751
552774
552803
552837
552872
552907
552938
552966
552990
553009
553023
553033
553040
553042
553041
553036
553028
553016
552999
552978
552951
552920
552880
550135
550363
550710
551083
551433
551740
552000
552211
552378
552506
552598
552662
552705
552732
552749
552763
552776
552792
552811
552835
552862
552890
552918
552945
552969
552990
553008
553021
553031
553037
553039
553038
553034
553026
553013
552997
552976
552949
552919
552880
550136
550363
550709
551080
551427
551733
551990
552200
552367
552497
552592
552660
552708
552740
552763
552779
552794
552810
552829
552850
552874
552899
552924
552949
552971
552991
553007
553020
553030
553036
553038
553037
553032
553024
553012
552996
552975
552949
552918
552880
450136
450315
450583
450871
451146
451391
451601
451776
451919
452031
452118
452182
452228
452261
452285
452303
452319
452333
452349
452366
452384
452402
452421
452438
452454
452468
452479
452488
452494
452497
452498
452495
452490
452482
452470
452455
452434
452409
452378
452338
450134
450315
450584
450874
451150
451397
451610
451786
451928
452038
452122
452182
452224
452253
452274
452290
452304
452319
452335
452354
452374
452395
452416
452436
452453
452468
452480
452489
452495
452499
452499
452497
452492
452484
452472
452456
452436
452410
452379
452338
450127
450310
450582
450877
451158
451411
451627
451806
451948
452057
452134
452186
452218
452238
452250
452258
452269
452285
452304
452327
452353
452381
452407
452431
452452
452469
452482
452492
452498
452502
452502
452500
452495
452487
452475
452460
452439
452413
452381
452339
450103
450292
450573
450878
451170
451433
451659
451844
451987
452088
452153
452188
452202
452204
452201
452199
452204
452220
452247
452281
452319
452358
452393
452424
452449
452469
452484
452495
452502
452505
452506
452504
452498
452490
452479
452464