/*--------------------------------*- C++ -*----------------------------------*\
| =========                 |                                                 |
| \\      /  F ield         | OpenFOAM: The Open Source CFD Toolbox           |
|  \\    /   O peration     | Version:  2406                                  |
|   \\  /    A nd           | Website:  www.openfoam.com                      |
|    \\/     M anipulation  |                                                 |
\*---------------------------------------------------------------------------*/
FoamFile
{
    version     2.0;
    format      ascii;
    arch        "LSB;label=32;scalar=64";
    class       volScalarField;
    location    "0.04368";
    object      p_rgh;
}
// * * * * * * * * * * * * * * * * * * * * * * * * * * * * * * * * * * * * * //

dimensions      [1 -1 -2 0 0 0 0];

internalField   nonuniform List<scalar> 
207657
(
25579.8
-5352.6
-3947.91
-3022.41
-2348.89
-1838.74
-1445.7
-1142.92
-912.847
-742.38
-620.567
-537.394
-483.397
-449.687
-428.224
-412.193
-396.34
-377.155
-352.865
-323.216
-289.106
-252.145
-214.235
-177.184
-142.329
-111.106
-84.3837
-62.6024
-45.935
-34.3763
-27.82
-26.1251
-29.1656
-36.8604
-49.1807
-66.1354
-87.6737
-113.608
-141.535
-174.942
25585.6
-5346.55
-3941.91
-3015.56
-2340.63
-1828.88
-1434.57
-1131.39
-902.191
-734.112
-616.149
-537.921
-489.503
-461.273
-444.557
-432.007
-418.03
-399.034
-373.414
-341.28
-304
-263.653
-222.533
-182.695
-145.596
-112.748
-84.8938
-62.382
-45.2949
-33.5367
-26.9232
-25.2526
-28.3563
-36.127
-48.5302
-65.6051
-87.2775
-113.414
-141.636
-175.472
25598.7
-5335
-3929.45
-3001.56
-2323.92
-1808.89
-1411.84
-1107.68
-880.222
-717.069
-607.025
-538.928
-502.132
-485.22
-478.264
-472.807
-462.547
-443.722
-415.114
-377.647
-333.706
-286.369
-238.722
-193.359
-151.846
-115.842
-85.8239
-61.9516
-44.1096
-32.0155
-25.3302
-23.7337
-26.9728
-34.8875
-47.4224
-64.7028
-86.5961
-113.068
-141.811
-176.451
25626
-5310.3
-3907.8
-2979.57
-2298.53
-1778.51
-1376.95
-1070.9
-845.878
-690.37
-592.821
-541.016
-522.008
-522.674
-530.86
-536.285
-531.483
-512.414
-478.569
-432.289
-377.686
-319.449
-261.808
-207.868
-160.429
-119.989
-86.9962
-61.3356
-42.5615
-30.1074
-23.4103
-21.983
-25.453
-33.5812
-46.2446
-63.7584
-85.855
-112.659
-142.007
-177.712
25678.8
-5267.15
-3874.25
-2949.05
-2264.94
-1738.3
-1330.07
-1020.84
-798.709
-653.8
-573.27
-543.83
-549.331
-574.049
-602.883
-623.008
-625.264
-605.049
-563.06
-503.861
-434.192
-361.074
-290.287
-225.934
-170.498
-124.591
-88.1668
-60.5696
-40.8855
-28.1772
-21.6095
-20.4985
-24.3287
-32.7796
-45.752
-63.2543
-85.3615
-112.311
-142.141
-178.992
25778.5
-5195.01
-3826.26
-2910.87
-2225.37
-1690.84
-1273.68
-960.046
-740.992
-608.828
-549.98
-547.687
-583.157
-637.061
-691.082
-729.256
-740.308
-717.721
-664.439
-588.169
-499.281
-407.76
-321.231
-244.759
-180.517
-128.872
-89.0379
-59.6702
-39.2872
-26.5297
-20.2822
-19.6668
-24.0036
-32.8508
-46.0599
-63.4952
-85.3785
-112.126
-142.095
-179.952
25957.7
-5089.84
-3766.92
-2870.13
-2185.35
-1642.06
-1213.89
-895.761
-680.77
-562.287
-526.317
-553.138
-620.708
-706.225
-787.832
-845.554
-864.826
-839.231
-772.849
-676.742
-566.102
-454.257
-350.649
-261.857
-189.099
-132.124
-89.3283
-58.5994
-37.8448
-25.2765
-19.53
-19.5682
-24.5285
-33.8198
-47.2262
-64.5263
-85.9619
-112.105
-141.666
-180.133
26047.4
-5028.25
-3728.46
-2841.02
-2153.58
-1600.69
-1163.04
-838.373
-626.357
-520.762
-506.343
-560.173
-657.059
-771.703
-879.01
-954.89
-981.913
-953.074
-873.611
-757.73
-625.864
-494.743
-376.059
-275.659
-195.399
-133.997
-88.9261
-57.3185
-36.5145
-24.3441
-19.2158
-19.95
-25.5252
-35.2106
-48.778
-65.9086
-86.905
-112.528
-141.812
-180.791
26081.5
-5001.87
-3710.6
-2825.56
-2133.61
-1572.25
-1125.96
-796.325
-586.654
-491.226
-493.271
-567.523
-686.57
-822.596
-949.013
-1038.76
-1071.84
-1040
-949.671
-818.768
-670.151
-523.91
-393.516
-284.809
-199.152
-134.663
-88.1139
-56.0483
-35.3739
-23.6385
-19.0869
-20.4169
-26.4736
-36.4405
-50.1131
-67.1048
-87.7972
-113.098
-142.249
-181.571
26091.8
-4993.48
-3704.57
-2819.57
-2124.55
-1558.6
-1107.14
-774.713
-566.28
-476.353
-487.179
-572.141
-702.597
-849.979
-986.477
-1083.75
-1120.17
-1086.6
-989.805
-851.301
-693.627
-539.306
-402.589
-289.364
-200.845
-134.763
-87.4891
-55.2393
-34.6852
-23.2247
-19.0176
-20.6912
-27.018
-37.1552
-50.8594
-67.7728
-88.3165
-113.471
-142.573
-182.063
26091.8
-4993.55
-3704.64
-2819.63
-2124.6
-1558.64
-1107.16
-774.698
-566.23
-476.26
-487.039
-571.976
-702.456
-849.866
-986.419
-1083.74
-1120.2
-1086.64
-989.847
-851.343
-693.666
-539.34
-402.619
-289.389
-200.864
-134.777
-87.4993
-55.2458
-34.6886
-23.2259
-19.0174
-20.6901
-27.0168
-37.1542
-50.8584
-67.772
-88.316
-113.471
-142.573
-182.063
26081.3
-5002.1
-3710.82
-2825.75
-2133.78
-1572.37
-1126.02
-796.297
-586.533
-490.98
-492.884
-567.054
-686.18
-822.266
-948.825
-1038.71
-1071.88
-1040.09
-949.78
-818.882
-670.258
-524.006
-393.596
-284.875
-199.204
-134.702
-88.1418
-56.0666
-35.3841
-23.6425
-19.0868
-20.4146
-26.4705
-36.4377
-50.1105
-67.1027
-87.7957
-113.097
-142.249
-181.571
26047
-5028.62
-3728.82
-2841.34
-2153.85
-1600.9
-1163.15
-838.399
-626.274
-520.485
-505.837
-559.517
-656.508
-771.241
-878.728
-954.78
-981.934
-953.17
-873.75
-757.886
-626.015
-494.88
-376.174
-275.756
-195.476
-134.055
-88.968
-57.3462
-36.5304
-24.3509
-19.2164
-19.9469
-25.5207
-35.2061
-48.7738
-65.905
-86.9023
-112.526
-141.811
-180.791
25957.2
-5090.34
-3767.4
-2870.57
-2185.74
-1642.38
-1214.14
-895.958
-680.922
-562.156
-525.874
-552.486
-620.073
-705.777
-787.542
-845.423
-864.843
-839.339
-773.006
-676.92
-566.278
-454.419
-350.793
-261.975
-189.193
-132.196
-89.38
-58.6341
-37.8653
-25.286
-19.5318
-19.5651
-24.523
-33.8136
-47.22
-64.5209
-85.9575
-112.102
-141.664
-180.132
25777.9
-5195.6
-3826.83
-2911.41
-2225.86
-1691.27
-1274.09
-960.519
-741.586
-608.955
-549.698
-547.165
-582.583
-636.62
-690.78
-729.112
-740.311
-717.82
-664.596
-588.353
-499.47
-407.938
-321.389
-244.892
-180.625
-128.955
-89.0988
-59.7122
-39.3136
-26.5438
-20.2873
-19.6658
-23.9989
-32.8443
-46.0529
-63.4885
-85.3729
-112.122
-142.092
-179.951
25678.2
-5267.8
-3874.88
-2949.66
-2265.49
-1738.8
-1330.52
-1021.24
-799.054
-653.854
-573.029
-543.426
-548.883
-573.677
-602.635
-622.895
-625.276
-605.152
-563.221
-504.052
-434.391
-361.265
-290.459
-226.081
-170.619
-124.686
-88.2379
-60.6204
-40.9194
-28.1977
-21.6198
-20.5015
-24.3269
-32.7749
-45.746
-63.248
-85.3559
-112.306
-142.138
-178.991
25625.3
-5311.01
-3908.5
-2980.23
-2299.15
-1779.06
-1377.41
-1071.25
-846.091
-690.371
-592.606
-540.662
-521.645
-522.386
-530.68
-536.221
-531.523
-512.534
-478.742
-432.492
-377.898
-319.653
-261.994
-208.029
-160.562
-120.095
-87.0777
-61.3957
-42.6037
-30.1351
-23.4268
-21.9911
-25.4552
-33.5796
-46.2408
-63.7537
-85.8504
-112.656
-142.004
-177.711
25597.9
-5335.77
-3930.21
-3002.29
-2324.6
-1809.49
-1412.35
-1108.05
-880.41
-717.045
-606.756
-538.475
-501.744
-484.962
-478.132
-472.785
-462.617
-443.862
-415.303
-377.863
-333.931
-286.587
-238.921
-193.533
-151.99
-115.959
-85.9149
-62.0204
-44.1596
-32.0502
-25.3529
-23.7471
-26.9795
-34.8894
-47.4213
-64.7002
-86.5931
-113.065
-141.809
-176.45
25584.7
-5347.41
-3942.75
-3016.36
-2341.39
-1829.55
-1435.13
-1131.79
-902.389
-734.066
-615.752
-537.205
-488.992
-460.99
-444.441
-432.01
-418.121
-399.19
-373.616
-341.509
-304.236
-263.882
-222.741
-182.877
-145.749
-112.872
-84.9921
-62.4574
-45.351
-33.5769
-26.9507
-25.2703
-28.3666
-36.132
-48.5317
-65.6045
-87.2759
-113.412
-141.635
-175.471
25578.9
-5353.52
-3948.8
-3023.26
-2349.7
-1839.47
-1446.31
-1143.37
-913.073
-742.32
-620.129
-536.627
-482.848
-449.394
-428.115
-412.207
-396.44
-377.319
-353.074
-323.452
-289.349
-252.38
-214.45
-177.371
-142.487
-111.235
-84.486
-62.6814
-45.9943
-34.4195
-27.8502
-26.1451
-29.178
-36.8672
-49.1837
-66.1361
-87.673
-113.607
-141.534
-174.942
24034
-4671.87
-3656.97
-2867.29
-2254.41
-1775.41
-1400.41
-1108.95
-886.251
-720.624
-601.899
-520.573
-467.56
-434.3
-413.006
-397.064
-381.365
-362.497
-338.737
-309.839
-276.679
-240.825
-204.116
-168.294
-134.622
-104.528
-78.8286
-57.9367
-42.009
-31.0359
-24.9152
-23.5171
-26.7329
-34.5038
-46.8344
-63.7985
-85.3401
-111.38
-139.587
-173.469
24038.5
-4667.22
-3651.7
-2860.95
-2246.49
-1765.75
-1389.36
-1097.4
-875.519
-712.19
-597.343
-521.005
-473.574
-445.809
-429.279
-416.825
-402.996
-384.294
-359.168
-327.748
-291.388
-252.131
-212.208
-173.599
-137.719
-106.034
-79.2341
-57.6359
-41.3058
-30.1439
-23.9715
-22.5993
-25.8764
-33.7189
-46.1221
-63.1972
-84.8739
-111.117
-139.632
-173.97
24049.2
-4656.43
-3640.61
-2848.07
-2230.51
-1746.11
-1366.69
-1073.51
-853.234
-694.841
-587.946
-521.94
-486.142
-469.806
-463.143
-457.85
-447.74
-429.139
-400.901
-364.002
-320.849
-274.506
-227.985
-183.631
-143.612
-108.866
-79.9677
-57.0601
-40.0122
-28.5384
-22.307
-21.0122
-24.4209
-32.3973
-44.9047
-62.1706
-84.0618
-110.634
-139.683
-174.877
24071.8
-4635.96
-3621.89
-2828.14
-2206.3
-1716.1
-1331.48
-1035.93
-817.872
-667.174
-573.057
-523.547
-506.162
-507.875
-516.742
-522.589
-517.981
-498.958
-465.127
-418.982
-364.769
-307.247
-250.639
-198.09
-151.808
-112.664
-80.8811
-56.2686
-38.3517
-26.5601
-20.3406
-19.2229
-22.8578
-31.0428
-43.7129
-61.1266
-83.1609
-110.024
-139.663
-175.979
24118.9
-4597.84
-3592.53
-2800.82
-2174.35
-1675.98
-1283.33
-983.635
-768.109
-628.165
-552.476
-526.071
-534.306
-561.174
-591.676
-612.909
-615.478
-594.879
-552.045
-491.938
-421.714
-348.629
-278.495
-215.321
-161.269
-116.82
-81.7631
-55.3479
-36.6215
-24.6425
-18.5924
-17.8096
-21.7998
-30.2737
-43.2239
-60.5682
-82.5316
-109.437
-139.47
-176.929
24215.9
-4528.85
-3550.49
-2766.95
-2136.82
-1627.97
-1224.01
-918.193
-704.687
-578.896
-526.33
-529.516
-569.848
-628.441
-686.004
-726.79
-738.378
-714.392
-658.498
-579.241
-487.981
-395.232
-308.727
-233.253
-170.528
-120.572
-82.3456
-54.3625
-35.0814
-23.1394
-17.4634
-17.224
-21.7542
-30.6405
-43.7574
-60.977
-82.5723
-109.06
-139.006
-177.316
24420.1
-4412.45
-3493.86
-2730.85
-2099.19
-1578.1
-1159.67
-846.593
-637.16
-526.526
-499.583
-534.745
-609.637
-702.071
-791.01
-854.055
-874.881
-846.461
-774.619
-672.194
-556.397
-441.533
-337.21
-249.135
-178.093
-123.156
-82.3173
-53.2567
-33.7901
-22.1157
-16.9856
-17.4997
-22.7548
-32.1772
-45.5059
-62.5099
-83.4334
-108.848
-137.619
-175.745
24496.7
-4357.21
-3462.86
-2707.87
-2070.39
-1535.52
-1103.54
-781.915
-575.619
-479.614
-477.544
-542.637
-648.982
-773.671
-891.846
-975.519
-1005.09
-972.324
-883.61
-757.375
-617.101
-480.974
-360.678
-261.204
-183.054
-124.152
-81.4592
-51.854
-32.5743
-21.4467
-17.0275
-18.3447
-24.3124
-34.184
-47.6393
-64.3725
-84.6605
-109.267
-137.44
-175.84
24523.7
-4338.4
-3452.23
-2698.07
-2053.54
-1506.56
-1062.93
-734.454
-530.827
-447.194
-464.27
-551.763
-681.653
-828.994
-968.778
-1068.6
-1105.42
-1068.66
-967.182
-821.37
-661.361
-508.61
-376.249
-268.564
-185.436
-123.911
-80.1406
-50.3828
-31.4441
-20.8885
-17.1595
-19.1839
-25.6887
-35.8539
-49.3669
-65.8784
-85.7423
-109.877
-137.773
-176.414
24529.7
-4334.57
-3450.34
-2695.37
-2046.49
-1493.1
-1042.52
-710.183
-508.034
-431.287
-458.808
-557.797
-698.716
-858.268
-1009.34
-1118.24
-1159.31
-1120.46
-1011.3
-855.393
-684.541
-523.014
-384.048
-271.976
-186.263
-123.431
-79.1774
-49.4151
-30.7184
-20.5164
-17.2025
-19.6363
-26.4384
-36.8362
-50.2937
-66.6834
-86.3452
-110.271
-138.061
-176.837
24529.7
-4334.64
-3450.41
-2695.44
-2046.54
-1493.14
-1042.53
-710.162
-507.976
-431.183
-458.64
-557.586
-698.573
-858.136
-1009.29
-1118.26
-1159.36
-1120.52
-1011.36
-855.444
-684.585
-523.051
-384.08
-272.001
-186.282
-123.445
-79.1865
-49.4201
-30.7202
-20.5157
-17.2005
-19.6337
-26.4358
-36.8338
-50.2917
-66.6819
-86.3442
-110.271
-138.061
-176.837
24523.4
-4338.65
-3452.46
-2698.28
-2053.71
-1506.68
-1062.97
-734.403
-530.681
-446.906
-463.79
-551.134
-681.223
-828.56
-968.574
-1068.58
-1105.51
-1068.79
-967.325
-821.506
-661.483
-508.717
-376.335
-268.632
-185.489
-123.95
-80.1674
-50.3993
-31.452
-20.8898
-17.157
-19.1792
-25.6837
-35.8495
-49.3634
-65.8757
-85.7404
-109.876
-137.772
-176.414
24496.3
-4357.59
-3463.23
-2708.2
-2070.66
-1535.71
-1103.63
-781.895
-575.501
-479.277
-476.906
-541.723
-647.915
-773.037
-891.525
-975.419
-1005.15
-972.446
-883.78
-757.556
-617.27
-481.122
-360.802
-261.303
-183.131
-124.209
-81.4998
-51.8797
-32.5874
-21.4502
-17.0251
-18.339
-24.3058
-34.1783
-47.6344
-64.3685
-84.6576
-109.265
-137.439
-175.839
24419.5
-4412.96
-3494.35
-2731.3
-2099.58
-1578.41
-1159.87
-846.736
-637.367
-526.365
-499.03
-533.892
-608.41
-701.655
-790.705
-853.928
-874.931
-846.603
-774.809
-672.397
-556.591
-441.706
-337.358
-249.255
-178.187
-123.227
-82.3673
-53.289
-33.8077
-22.1221
-16.9845
-17.4941
-22.7474
-32.1697
-45.4989
-62.5039
-83.4287
-108.844
-137.617
-175.744
24215.3
-4529.44
-3551.06
-2767.49
-2137.31
-1628.4
-1224.41
-918.792
-706.062
-579.136
-525.99
-528.891
-569.12
-627.944
-685.706
-726.654
-738.397
-714.517
-658.679
-579.445
-488.183
-395.418
-308.89
-233.387
-170.635
-120.654
-82.4046
-54.4022
-35.1053
-23.151
-17.4662
-17.2209
-21.7478
-30.6326
-43.7492
-60.9694
-82.5661
-109.056
-139.003
-177.315
24118.3
-4598.49
-3593.17
-2801.42
-2174.9
-1676.47
-1283.75
-984.039
-768.538
-628.212
-552.172
-525.618
-533.808
-560.767
-591.416
-612.799
-615.509
-595.003
-552.224
-492.144
-421.925
-348.828
-278.672
-215.471
-161.39
-116.914
-81.8326
-55.3969
-36.6535
-24.6612
-18.601
-17.8111
-21.7967
-30.2679
-43.217
-60.5612
-82.5254
-109.432
-139.467
-176.927
24071.1
-4636.67
-3622.58
-2828.79
-2206.9
-1716.64
-1331.92
-1036.26
-818.079
-667.165
-572.83
-523.178
-505.795
-507.588
-516.57
-522.537
-518.038
-499.095
-465.316
-419.198
-364.992
-307.46
-250.83
-198.254
-151.942
-112.77
-80.9614
-56.3272
-38.3924
-26.5864
-20.3559
-19.23
-22.8592
-31.0405
-43.7089
-61.1215
-83.156
-110.02
-139.66
-175.977
24048.4
-4657.2
-3641.37
-2848.8
-2231.18
-1746.71
-1367.18
-1073.87
-853.419
-694.829
-587.67
-521.324
-485.757
-469.574
-463.034
-457.848
-447.828
-429.295
-401.105
-364.232
-321.086
-274.732
-228.189
-183.807
-143.758
-108.983
-80.0577
-57.1276
-40.061
-28.572
-22.3286
-21.0248
-24.4269
-32.3987
-44.9031
-62.1677
-84.0585
-110.631
-139.681
-174.876
24037.7
-4668.07
-3652.52
-2861.75
-2247.23
-1766.42
-1389.93
-1097.81
-875.693
-712.201
-596.895
-519.804
-472.999
-445.559
-429.197
-416.852
-403.104
-384.465
-359.384
-327.991
-291.637
-252.369
-212.423
-173.783
-137.873
-106.159
-79.3316
-57.7103
-41.3608
-30.1832
-23.9982
-22.6163
-25.8861
-33.7235
-46.1233
-63.1964
-84.8722
-111.115
-139.63
-173.97
24033.1
-4672.78
-3657.86
-2868.14
-2255.21
-1776.13
-1401.03
-1109.41
-886.5
-720.596
-601.402
-519.356
-466.95
-434.046
-412.936
-397.104
-381.483
-362.676
-338.96
-310.089
-276.936
-241.07
-204.338
-168.485
-134.781
-104.657
-78.9302
-58.0148
-42.0675
-31.0782
-24.9446
-23.5366
-26.7448
-34.5103
-46.8371
-63.7989
-85.3394
-111.379
-139.586
-173.469
21806.5
-3926.03
-3234.86
-2608.97
-2084.72
-1657.2
-1314.21
-1043.58
-834.777
-678.372
-565.478
-487.551
-436.278
-403.727
-382.617
-366.738
-351.284
-333.031
-310.345
-282.992
-251.792
-218.208
-183.95
-150.604
-119.346
-91.5313
-67.8845
-48.7676
-34.3102
-24.4956
-19.2318
-18.4121
-21.9608
-29.8623
-42.177
-59.1047
-80.6376
-106.85
-135.587
-170.428
21809.5
-3922.52
-3230.74
-2603.55
-2077.45
-1647.96
-1303.34
-1032.08
-824.017
-669.727
-560.712
-487.776
-442.056
-414.987
-398.636
-386.234
-372.624
-354.498
-330.401
-300.484
-266.057
-229.068
-191.628
-155.595
-122.129
-92.7768
-68.0856
-48.3086
-33.4804
-23.4961
-18.1893
-17.3964
-21.0026
-28.9693
-41.3395
-58.3654
-80.0265
-106.445
-135.514
-170.869
21816.4
-3915.37
-3222.55
-2592.8
-2062.86
-1629.08
-1280.91
-1008.04
-801.279
-651.87
-550.786
-488.415
-454.374
-438.873
-432.52
-427.359
-417.452
-399.308
-371.901
-336.281
-294.869
-250.675
-206.587
-164.769
-127.371
-95.1011
-68.4364
-47.4471
-31.969
-21.7147
-16.3694
-15.657
-19.3851
-27.4676
-39.8655
-57.1004
-78.9415
-105.673
-135.303
-171.619
21831.6
-3902.05
-3209.56
-2576.87
-2040.96
-1599.88
-1245.28
-969.156
-764.218
-622.58
-534.673
-489.225
-474.583
-477.864
-487.656
-494.057
-489.726
-470.839
-437.206
-391.579
-338.423
-282.579
-228.195
-178.15
-134.667
-98.2066
-68.8519
-46.3162
-30.0849
-19.588
-14.2947
-13.7684
-17.7046
-25.9788
-38.7975
-55.8243
-77.6879
-104.63
-134.815
-172.355
21870.4
-3874.9
-3190.57
-2556.17
-2012.35
-1560.05
-1194.84
-912.727
-709.735
-579.591
-511.494
-491.172
-504.308
-534.619
-567.833
-590.915
-593.989
-572.734
-528.454
-466.884
-395.945
-323.283
-254.738
-194.096
-142.999
-101.53
-69.2047
-45.1212
-28.2681
-17.7085
-12.6574
-12.4941
-16.7612
-25.2154
-38.0615
-55.0938
-76.7409
-103.519
-133.895
-172.486
21970.4
-3814.6
-3160
-2531.54
-1979.09
-1510.94
-1129.71
-836.812
-633.862
-521.537
-481.101
-494.116
-543.45
-609.092
-674.487
-720.437
-732.11
-705.825
-644.913
-559.937
-464.3
-369.502
-283.457
-210.334
-150.839
-104.33
-69.3109
-44.0527
-26.9233
-16.5634
-11.986
-12.4531
-17.3093
-26.2441
-39.0997
-55.8331
-76.8195
-102.767
-132.719
-171.888
22388.2
-3664.14
-3114.19
-2506.69
-1946.77
-1458.66
-1058.16
-749.688
-550.297
-456.012
-447.709
-498.95
-587.097
-692.011
-796.092
-870.86
-894.835
-860.801
-777.425
-661.969
-535.795
-415.177
-309.844
-223.8
-156.482
-105.731
-68.8125
-43.0464
-26.0811
-16.0399
-11.9963
-13.4643
-19.2869
-29.1608
-42.2361
-58.6417
-78.5225
-102.289
-128.924
-164.947
22488.5
-3620.82
-3101.03
-2497.65
-1924.74
-1413.49
-987.081
-668.657
-473.499
-397.186
-422.188
-509.45
-633.109
-776.089
-918.665
-1019
-1054.27
-1012.67
-903.402
-755.135
-597.616
-452.002
-329.336
-232.229
-158.71
-105.004
-67.1187
-41.4982
-25.2092
-16.0265
-12.8409
-15.3401
-22.1063
-32.6893
-45.6262
-61.579
-80.4092
-102.776
-128.207
-164.06
22505.3
-3618.46
-3106.48
-2500.27
-1915.34
-1384.54
-938.534
-608.689
-417.266
-359.671
-410.278
-523.569
-669.284
-839.413
-1009.76
-1131.72
-1177.55
-1129.28
-999.869
-823.803
-640.547
-475.676
-340.318
-235.648
-158.216
-102.924
-64.8122
-39.6702
-24.1466
-15.7865
-13.5289
-17.0122
-24.4175
-35.3142
-48.1746
-63.7308
-81.894
-103.482
-128.351
-164.215
22503.1
-3624.24
-3113.6
-2505.24
-1913.22
-1370.93
-914.461
-578.148
-388.926
-342.241
-408.078
-534.113
-689.542
-871.475
-1055.62
-1191.16
-1243.83
-1192.47
-1052.71
-859.879
-662.154
-486.929
-345.012
-236.499
-157.191
-101.245
-63.1646
-38.3896
-23.3507
-15.4824
-13.7886
-17.845
-25.5622
-36.4636
-49.4307
-64.803
-82.6614
-103.917
-128.567
-164.489
22503
-3624.31
-3113.68
-2505.32
-1913.29
-1370.98
-914.474
-578.119
-388.855
-342.13
-407.86
-533.77
-689.26
-871.311
-1055.65
-1191.25
-1243.95
-1192.58
-1052.8
-859.948
-662.206
-486.966
-345.045
-236.524
-157.208
-101.256
-63.1699
-38.3902
-23.3474
-15.4761
-13.7816
-17.8379
-25.5556
-36.4578
-49.426
-64.7994
-82.6589
-103.916
-128.566
-164.489
22505
-3618.75
-3106.75
-2500.51
-1915.53
-1384.66
-938.545
-608.593
-417.071
-359.315
-409.609
-522.476
-668.179
-838.671
-1009.55
-1131.8
-1177.77
-1129.51
-1000.08
-823.984
-640.695
-475.808
-340.412
-235.718
-158.266
-102.96
-64.8343
-39.6811
-24.148
-15.7804
-13.52
-17.0016
-24.4077
-35.3062
-48.1689
-63.7264
-81.891
-103.48
-128.35
-164.214
22488.1
-3621.25
-3101.44
-2498.01
-1925.04
-1413.68
-987.115
-668.522
-473.291
-396.765
-421.283
-508.088
-631.54
-775.208
-918.278
-1018.93
-1054.41
-1012.84
-903.636
-755.367
-597.817
-452.165
-329.468
-232.331
-158.786
-105.059
-67.1545
-41.518
-25.2151
-16.0214
-12.8311
-15.3273
-22.0944
-32.6799
-45.6196
-61.5739
-80.4056
-102.773
-128.205
-164.06
22387.7
-3664.68
-3114.71
-2507.17
-1947.18
-1458.97
-1058.31
-749.571
-550.434
-455.712
-446.96
-497.897
-585.709
-691.887
-795.731
-870.723
-894.931
-861.018
-777.686
-662.223
-536.021
-415.367
-309.999
-223.922
-156.574
-105.798
-68.8574
-43.0728
-26.0919
-16.0384
-11.9887
-13.4528
-19.2749
-29.1504
-42.2273
-58.6346
-78.5173
-102.286
-128.921
-164.946
21969.8
-3815.21
-3160.59
-2532.1
-1979.58
-1511.35
-1130.04
-837.391
-637.191
-521.734
-480.599
-493.308
-542.54
-608.401
-674.012
-720.295
-732.249
-706.02
-645.143
-560.18
-464.528
-369.704
-283.627
-210.471
-150.944
-104.408
-69.365
-44.0871
-26.9419
-16.5699
-11.9841
-12.4457
-17.2991
-26.2332
-39.0891
-55.8236
-76.8117
-102.761
-132.716
-171.886
21869.8
-3875.55
-3191.2
-2556.76
-2012.88
-1560.51
-1195.21
-913.025
-710.16
-579.532
-511.181
-490.638
-503.721
-534.132
-567.532
-590.799
-594.07
-572.902
-528.67
-467.12
-396.178
-323.498
-254.924
-194.249
-143.12
-101.621
-69.2707
-45.1663
-28.2964
-17.7237
-12.6629
-12.4928
-16.7556
-25.2074
-38.0526
-55.0854
-76.7336
-103.513
-133.892
-172.484
21830.9
-3902.74
-3210.23
-2577.5
-2041.54
-1600.39
-1245.69
-969.442
-764.388
-622.54
-534.445
-488.892
-474.231
-477.586
-487.499
-494.026
-489.821
-471.01
-437.425
-391.821
-338.668
-282.808
-228.397
-178.319
-134.803
-98.311
-68.9297
-46.3719
-30.1227
-19.6118
-14.3077
-13.7736
-17.7043
-25.975
-38.7917
-55.8183
-77.6823
-104.625
-134.812
-172.354
21815.6
-3916.13
-3223.28
-2593.5
-2063.51
-1629.64
-1281.39
-1008.39
-801.472
-651.892
-550.594
-488.118
-454.12
-438.72
-432.463
-427.397
-417.576
-399.496
-372.133
-336.537
-295.13
-250.92
-206.804
-164.954
-127.518
-95.2167
-68.5244
-47.5122
-32.0153
-21.7461
-16.3892
-15.6681
-19.3898
-27.468
-39.8626
-57.097
-78.9378
-105.67
-135.3
-171.618
21808.6
-3923.35
-3231.55
-2604.32
-2078.17
-1648.6
-1303.9
-1032.51
-824.185
-669.886
-560.307
-485.447
-441.562
-414.86
-398.63
-386.308
-372.765
-354.697
-330.646
-300.755
-266.331
-229.326
-191.855
-155.784
-122.285
-92.9008
-68.1815
-48.3808
-33.5333
-23.5334
-18.2144
-17.4121
-21.0114
-28.9731
-41.3401
-58.3643
-80.0246
-106.443
-135.512
-170.868
21805.6
-3926.92
-3235.72
-2609.8
-2085.49
-1657.9
-1314.83
-1044.09
-835.098
-678.458
-565.059
-485.178
-435.771
-403.617
-382.633
-366.826
-351.432
-333.236
-310.598
-283.272
-252.077
-218.476
-184.186
-150.802
-119.508
-91.6601
-67.9847
-48.8438
-34.3667
-24.5362
-19.2598
-18.4305
-21.972
-29.8682
-42.1793
-59.1049
-80.6367
-106.848
-135.586
-170.427
19211.9
-3252.15
-2777.36
-2295.37
-1863.55
-1496.54
-1194.25
-951.464
-761.749
-618.051
-513.029
-439.54
-390.341
-358.393
-337.179
-321.122
-305.879
-288.506
-267.475
-242.539
-214.409
-184.367
-153.9
-124.278
-96.7956
-72.4442
-51.8856
-35.4205
-23.1454
-15.0379
-11.0247
-11.0347
-15.0417
-23.0899
-35.3021
-52.0878
-73.5155
-99.8699
-129.301
-165.576
19212.9
-3250.57
-2774.79
-2291.13
-1857.18
-1487.94
-1183.79
-940.27
-751.136
-609.6
-508.083
-439.401
-395.624
-369.041
-352.48
-339.819
-326.36
-309.073
-286.62
-259.139
-227.827
-194.45
-160.889
-128.699
-99.1016
-73.309
-51.7913
-34.7307
-22.1252
-13.8695
-9.82059
-9.85468
-13.9116
-22.0237
-34.2989
-51.1409
-72.672
-99.2387
-129.041
-165.92
19214.2
-3248.41
-2770.53
-2283.21
-1844.52
-1470.27
-1162.05
-916.398
-728.131
-590.979
-497.498
-439.349
-407.278
-392.235
-385.653
-380.203
-370.378
-352.94
-327.008
-293.672
-255.282
-214.692
-174.577
-136.928
-103.429
-74.9075
-51.5928
-33.4508
-20.2808
-11.8031
-7.73397
-7.84423
-12.004
-20.2333
-32.8395
-49.5191
-71.1379
-97.9996
-128.407
-166.41
19216.5
-3246.31
-2766.15
-2272.76
-1825.87
-1442.53
-1126.34
-876.354
-689.434
-559.998
-480.053
-439.633
-427.487
-431.8
-441.891
-448.37
-444.166
-425.609
-392.719
-348.53
-297.671
-244.976
-194.415
-148.548
-109.39
-77.0243
-51.3059
-31.8309
-18.0532
-9.42157
-5.44557
-5.73993
-10.0565
-18.3261
-30.9446
-47.6914
-69.2666
-96.2389
-127.141
-166.49
19236.5
-3241.31
-2762.48
-2261.74
-1802.11
-1403.39
-1073.12
-815.078
-630.036
-512.762
-453.927
-440.613
-459.465
-492.935
-528.369
-553.029
-556.726
-534.796
-489.002
-426.206
-355.272
-284.193
-218.693
-162.507
-116.139
-79.2351
-50.9777
-30.2968
-16.1407
-7.61105
-3.97162
-4.6499
-9.24173
-17.5004
-30.1357
-46.631
-67.7266
-94.2133
-124.892
-164.757
19364.8
-3212.97
-2758.47
-2253.05
-1775.6
-1352.53
-998.969
-726.601
-545.716
-446.328
-419.418
-443.166
-505.736
-578.783
-650.673
-702.447
-716.953
-687.685
-619.651
-526.96
-425.948
-329.258
-245.207
-176.332
-122.091
-80.8768
-50.6131
-29.3117
-15.2849
-7.23281
-4.25113
-5.65521
-10.7983
-19.7014
-31.8355
-47.7027
-67.6969
-92.8267
-123.141
-162.582
20301
-3060.17
-2747.07
-2250.49
-1751.85
-1293.55
-906.629
-608.734
-423.34
-356.399
-378.16
-452.336
-556.405
-680.164
-801.357
-894.776
-925.198
-882.775
-780.808
-644.073
-502.165
-373.726
-268.333
-186.442
-125.289
-81.0053
-49.9333
-29.0047
-15.6906
-7.87299
-5.35838
-8.39703
-14.8105
-24.5414
-37.428
-53.0393
-71.4361
-92.3446
-114.479
-145.574
20386.8
-3065.22
-2771.65
-2266.42
-1742.07
-1245.62
-817.113
-496.987
-319.256
-275.434
-350.891
-469.013
-613
-776.44
-960.988
-1089.78
-1135.78
-1078.06
-932.813
-747.695
-563.204
-404.869
-280.701
-188.818
-123.235
-77.7322
-47.1344
-27.4518
-15.6169
-9.23817
-7.70605
-12.1294
-19.7712
-30.3349
-42.8683
-57.8854
-74.4827
-93.1082
-113.344
-143.148
20370.8
-3099.06
-2806.21
-2291.45
-1747.28
-1219.17
-753.641
-412.748
-241.136
-231.02
-346.975
-497.198
-659.499
-848.087
-1073.44
-1234.89
-1300.14
-1230.46
-1047.85
-820.187
-600.782
-419.661
-283.091
-185.528
-118.147
-72.8703
-43.4308
-25.2192
-14.8013
-9.57095
-9.32784
-15.3425
-23.6329
-34.2814
-46.7052
-61.0294
-76.5985
-93.9627
-113.236
-142.515
20352
-3122.9
-2828.83
-2309.27
-1755.43
-1209.39
-723.024
-369.551
-201.867
-212.434
-357.147
-520.549
-683.165
-881.011
-1124.61
-1310.79
-1389.25
-1313.95
-1109.68
-856.043
-617.009
-424.438
-281.841
-181.876
-114.062
-69.294
-40.7374
-23.4808
-13.921
-9.35943
-9.89199
-16.8448
-25.4159
-36.066
-48.4999
-62.478
-77.5935
-94.4429
-113.346
-142.533
20351.7
-3123.1
-2828.96
-2309.38
-1755.5
-1209.47
-723.056
-369.517
-201.777
-212.377
-356.933
-520.019
-682.701
-880.829
-1125.01
-1311.11
-1389.52
-1314.16
-1109.83
-856.145
-617.079
-424.492
-281.88
-181.901
-114.076
-69.2987
-40.7345
-23.4714
-13.906
-9.33941
-9.8734
-16.8268
-25.3992
-36.0516
-48.4876
-62.4686
-77.5867
-94.4388
-113.344
-142.532
20370.4
-3099.43
-2806.55
-2291.74
-1747.51
-1219.28
-753.614
-412.577
-240.884
-230.572
-346.089
-495.62
-657.893
-846.708
-1073.34
-1235.24
-1300.66
-1230.87
-1048.18
-820.439
-600.961
-419.799
-283.19
-185.596
-118.192
-72.8988
-43.4453
-25.2215
-14.7928
-9.55341
-9.30994
-15.3227
-23.6161
-34.2682
-46.6963
-61.0222
-76.5933
-93.9598
-113.234
-142.514
20386.3
-3065.7
-2772.13
-2266.85
-1742.43
-1245.84
-817.045
-496.631
-318.889
-274.831
-349.531
-466.953
-611.454
-775.378
-960.354
-1089.86
-1136.15
-1078.04
-933.137
-748.006
-563.452
-405.057
-280.841
-188.92
-123.306
-77.7797
-47.1621
-27.4622
-15.6113
-9.21823
-7.68563
-12.1052
-19.7515
-30.3207
-42.86
-57.8783
-74.4777
-93.1056
-113.343
-143.146
20300.4
-3060.78
-2747.67
-2251.04
-1752.33
-1293.9
-906.718
-607.392
-422.547
-355.784
-377.1
-450.82
-555.237
-678.266
-800.604
-894.948
-926.131
-883.212
-781.189
-644.404
-502.435
-373.938
-268.494
-186.562
-125.375
-81.0636
-49.9687
-29.0208
-15.6899
-7.85823
-5.3408
-8.37562
-14.7918
-24.5267
-37.4161
-53.0305
-71.4302
-92.3406
-114.476
-145.572
19364.2
-3213.61
-2759.09
-2253.63
-1776.1
-1352.91
-999.14
-726.058
-542.06
-445.331
-418.519
-442.042
-504.446
-577.667
-650.227
-702.368
-717.068
-687.969
-619.956
-527.256
-426.21
-329.477
-245.383
-176.469
-122.192
-80.9475
-50.659
-29.3378
-15.2957
-7.23231
-4.24283
-5.64176
-10.7825
-19.6849
-31.8205
-47.6896
-67.6863
-92.8187
-123.137
-162.58
19235.9
-3241.96
-2763.1
-2262.31
-1802.63
-1403.81
-1073.4
-815.128
-629.606
-512.379
-453.404
-439.912
-458.7
-492.313
-528.058
-552.986
-556.825
-535.019
-489.269
-426.482
-355.536
-284.43
-218.891
-162.664
-116.258
-79.3224
-51.0385
-30.3363
-16.1637
-7.62163
-3.97301
-4.64492
-9.23284
-17.4893
-30.1245
-46.6205
-67.7176
-94.2064
-124.887
-164.755
19215.8
-3246.99
-2766.8
-2273.36
-1826.42
-1442.99
-1126.69
-876.57
-689.47
-559.901
-479.807
-439.278
-427.144
-431.537
-441.774
-448.401
-444.302
-425.828
-392.982
-348.808
-297.948
-245.23
-194.632
-148.723
-109.525
-77.1262
-51.3799
-31.8825
-18.0871
-9.44185
-5.45559
-5.74252
-10.0541
-18.3207
-30.9378
-47.6844
-69.2602
-96.2339
-127.138
-166.488
19213.5
-3249.14
-2771.22
-2283.86
-1845.12
-1470.79
-1162.48
-916.729
-728.346
-591.033
-497.402
-439.465
-407.265
-392.207
-385.68
-380.302
-370.548
-353.173
-327.283
-293.968
-255.581
-214.966
-174.811
-137.117
-103.578
-75.0213
-51.6777
-33.5122
-20.3237
-11.8315
-7.75126
-7.85327
-12.0072
-20.2327
-32.8374
-49.5152
-71.1339
-97.9962
-128.405
-166.409
19212.1
-3251.37
-2775.55
-2291.85
-1857.84
-1488.5
-1184.36
-940.752
-751.58
-609.699
-508.384
-441.737
-396.063
-369.173
-352.585
-339.954
-326.543
-309.311
-286.907
-259.455
-228.144
-194.739
-161.136
-128.899
-99.2601
-73.4316
-51.8843
-34.7996
-22.1749
-13.9041
-9.8434
-9.86864
-13.9191
-22.0266
-34.2988
-51.1394
-72.6699
-99.2366
-129.04
-165.92
19211.1
-3253.01
-2778.19
-2296.16
-1864.28
-1497.17
-1194.85
-952.067
-762.213
-618.369
-513.549
-441.963
-390.877
-358.583
-337.315
-321.27
-306.063
-288.743
-267.771
-242.87
-214.741
-184.671
-154.158
-124.487
-96.9604
-72.5721
-51.9832
-35.4936
-23.1989
-15.0759
-11.0507
-11.0515
-15.0517
-23.095
-35.3039
-52.0878
-73.5144
-99.8686
-129.3
-165.575
16399.6
-2669.7
-2328.87
-1958.49
-1610.94
-1305.85
-1048.68
-838.59
-671.64
-542.792
-446.926
-378.303
-330.951
-298.994
-276.977
-260.196
-244.959
-228.68
-209.933
-188.385
-164.565
-139.478
-114.296
-89.955
-67.4707
-47.7696
-31.3365
-18.3852
-8.97615
-3.08889
-0.680653
-1.73001
-6.27528
-14.4383
-26.3573
-42.8531
-63.916
-90.2118
-120.321
-158.402
16398.8
-2669.9
-2327.77
-1955.44
-1605.6
-1298.2
-1039.28
-828.181
-661.32
-534.413
-441.87
-377.682
-335.36
-308.394
-290.706
-277.091
-263.506
-247.304
-227.229
-203.322
-176.539
-148.341
-120.251
-93.4721
-69.1285
-48.1509
-30.8732
-17.4009
-7.70224
-1.68292
0.762087
-0.298994
-4.87679
-13.1036
-25.3
-41.5935
-62.7261
-89.2526
-119.797
-158.61
16394
-2672.73
-2327.47
-1950.34
-1595.14
-1282.39