# Probe 0 (10 5 0)
# Probe 1 (10 6 0)
# Probe 2 (10 7 0)
# Time        0             1             2            
0.012         1             1             1            
0.0264        1             1             1            
0.04368       1             1             1            
