# Probe 0 (10 5 0)
# Probe 1 (10 6 0)
# Probe 2 (10 7 0)
# Time        0             1             2            
0.012         70562.2       56133.2       56133.2      
0.0264        -16672.3      -13023.7      -13023.7     
0.04368       -10712.3      -8746.06      -8746.06     
